<?xml version="1.0" encoding="UTF-8"?>

<!-- generated on 2025-01-24 15:21:27 by Eclipse SUMO sumo Version 1.20.0
<configuration xmlns:xsi="http://www.w3.org/2001/XMLSchema-instance" xsi:noNamespaceSchemaLocation="http://sumo.dlr.de/xsd/sumoConfiguration.xsd">

    <input>
        <net-file value="/Users/dguastel/TULIPE_SCENARIO_OSM/tulipe_highways/tulipe_highways.rev.net.xml"/>
        <route-files value="output/0b68d8dd-3ff7-4363-9a3e-98d5fb5b4b89/routes.xml"/>
        <additional-files value="output/0b68d8dd-3ff7-4363-9a3e-98d5fb5b4b89/edgedata.no_roadworks.add.xml"/>
    </input>

    <output>
        <summary-output value="output/0b68d8dd-3ff7-4363-9a3e-98d5fb5b4b89/summary.out.xml"/>
        <tripinfo-output value="output/0b68d8dd-3ff7-4363-9a3e-98d5fb5b4b89/tripinfo.out.xml"/>
        <tripinfo-output.write-unfinished value="true"/>
    </output>

    <time>
        <begin value="0"/>
        <end value="7200"/>
    </time>

    <processing>
        <ignore-route-errors value="true"/>
        <random-depart-offset value="60.0"/>
    </processing>

    <random_number>
        <random value="true"/>
    </random_number>

</configuration>
-->

<meandata xmlns:xsi="http://www.w3.org/2001/XMLSchema-instance" xsi:noNamespaceSchemaLocation="http://sumo.dlr.de/xsd/meandata_file.xsd">
    <interval begin="0.00" end="3600.00" id="0_to_3600">
        <edge id="-1000933268" sampledSeconds="0.00" departed="0" arrived="0" entered="0" left="0" laneChangedFrom="0" laneChangedTo="0"/>
        <edge id="-1006106056#0" sampledSeconds="0.00" departed="0" arrived="0" entered="0" left="0" laneChangedFrom="0" laneChangedTo="0"/>
        <edge id="-1006106056#1" sampledSeconds="0.00" departed="0" arrived="0" entered="0" left="0" laneChangedFrom="0" laneChangedTo="0"/>
        <edge id="-1024105863" sampledSeconds="143.73" traveltime="3.88" overlapTraveltime="4.71" density="1.53" laneDensity="1.53" occupancy="0.64" waitingTime="0.00" timeLoss="20.45" speed="6.61" speedRelative="0.79" departed="3" arrived="2" entered="28" left="29" laneChangedFrom="0" laneChangedTo="0"/>
        <edge id="-1037986847" sampledSeconds="61.27" traveltime="2.25" overlapTraveltime="3.45" density="85.09" laneDensity="42.55" occupancy="0.84" waitingTime="37.00" timeLoss="49.55" speed="1.51" speedRelative="0.18" departed="2" arrived="3" entered="17" left="16" laneChangedFrom="1" laneChangedTo="1"/>
        <edge id="-1041085657#0" sampledSeconds="1280.21" traveltime="9.70" overlapTraveltime="10.49" density="44.29" laneDensity="44.29" occupancy="20.61" waitingTime="1039.00" timeLoss="1085.00" speed="1.24" speedRelative="0.15" departed="1" arrived="1" entered="125" left="124" laneChangedFrom="0" laneChangedTo="0" teleported="2"/>
        <edge id="-1041085657#1" sampledSeconds="2278.03" traveltime="17.35" overlapTraveltime="18.12" density="46.26" laneDensity="46.26" occupancy="22.21" waitingTime="1919.00" timeLoss="1995.13" speed="1.03" speedRelative="0.12" departed="1" arrived="2" entered="128" left="125" laneChangedFrom="0" laneChangedTo="0"/>
        <edge id="-1056901981#0" sampledSeconds="0.00" departed="0" arrived="0" entered="0" left="0" laneChangedFrom="0" laneChangedTo="0"/>
        <edge id="-1056901981#1" sampledSeconds="0.00" departed="0" arrived="0" entered="0" left="0" laneChangedFrom="0" laneChangedTo="0"/>
        <edge id="-1058267556#0" sampledSeconds="0.00" departed="0" arrived="0" entered="0" left="0" laneChangedFrom="0" laneChangedTo="0"/>
        <edge id="-1058267556#1" sampledSeconds="0.00" departed="0" arrived="0" entered="0" left="0" laneChangedFrom="0" laneChangedTo="0"/>
        <edge id="-1058268367" sampledSeconds="0.00" departed="0" arrived="0" entered="0" left="0" laneChangedFrom="0" laneChangedTo="0"/>
        <edge id="-1059828488" sampledSeconds="0.00" departed="0" arrived="0" entered="0" left="0" laneChangedFrom="0" laneChangedTo="0"/>
        <edge id="-1059828489" sampledSeconds="0.00" departed="0" arrived="0" entered="0" left="0" laneChangedFrom="0" laneChangedTo="0"/>
        <edge id="-1059828490" sampledSeconds="0.00" departed="0" arrived="0" entered="0" left="0" laneChangedFrom="0" laneChangedTo="0"/>
        <edge id="-1066438511#0" sampledSeconds="86.55" traveltime="1.24" overlapTraveltime="2.08" density="3.18" laneDensity="3.18" occupancy="1.00" waitingTime="3.00" timeLoss="17.17" speed="6.04" speedRelative="0.72" departed="1" arrived="0" entered="41" left="42" laneChangedFrom="0" laneChangedTo="0"/>
        <edge id="-1066438511#1" sampledSeconds="347.33" traveltime="7.39" overlapTraveltime="8.10" density="1.77" laneDensity="1.77" occupancy="0.81" waitingTime="0.00" timeLoss="35.95" speed="7.36" speedRelative="0.88" departed="3" arrived="2" entered="41" left="41" laneChangedFrom="0" laneChangedTo="0"/>
        <edge id="-1066478854#0" sampledSeconds="370.87" traveltime="5.53" overlapTraveltime="6.19" density="2.52" laneDensity="2.52" occupancy="1.12" waitingTime="0.00" timeLoss="35.67" speed="7.40" speedRelative="0.89" departed="1" arrived="0" entered="59" left="60" laneChangedFrom="0" laneChangedTo="0"/>
        <edge id="-1066478854#1" sampledSeconds="107.08" traveltime="1.08" overlapTraveltime="1.80" density="4.64" laneDensity="4.64" occupancy="1.30" waitingTime="0.00" timeLoss="24.21" speed="6.33" speedRelative="0.76" departed="3" arrived="2" entered="58" left="59" laneChangedFrom="0" laneChangedTo="0"/>
        <edge id="-1080960154#0" sampledSeconds="29.74" traveltime="0.91" overlapTraveltime="2.25" density="2.13" laneDensity="2.13" occupancy="0.48" waitingTime="0.00" timeLoss="6.23" speed="3.94" speedRelative="0.71" departed="1" arrived="1" entered="13" left="13" laneChangedFrom="0" laneChangedTo="0"/>
        <edge id="-1080960154#1" sampledSeconds="551.88" traveltime="35.77" overlapTraveltime="36.91" density="0.89" laneDensity="0.89" occupancy="0.43" waitingTime="0.00" timeLoss="68.47" speed="4.78" speedRelative="0.86" departed="1" arrived="2" entered="14" left="13" laneChangedFrom="0" laneChangedTo="0"/>
        <edge id="-1083809476#0" sampledSeconds="74.41" traveltime="2.43" overlapTraveltime="3.40" density="20.67" laneDensity="20.67" occupancy="1.75" waitingTime="39.00" timeLoss="63.67" speed="1.77" speedRelative="0.21" departed="2" arrived="6" entered="21" left="17" laneChangedFrom="0" laneChangedTo="0"/>
        <edge id="-1083809476#1" sampledSeconds="97.57" traveltime="1.20" overlapTraveltime="4.35" density="3.84" laneDensity="3.84" occupancy="1.26" waitingTime="39.00" timeLoss="68.40" speed="2.77" speedRelative="0.33" departed="0" arrived="2" entered="23" left="21" laneChangedFrom="0" laneChangedTo="0"/>
        <edge id="-1083809476#2" sampledSeconds="229.48" traveltime="9.47" overlapTraveltime="10.24" density="1.00" laneDensity="1.00" occupancy="0.46" waitingTime="0.00" timeLoss="40.87" speed="6.72" speedRelative="0.81" departed="8" arrived="0" entered="15" left="23" laneChangedFrom="0" laneChangedTo="0"/>
        <edge id="-1089556862" sampledSeconds="0.00" departed="0" arrived="0" entered="0" left="0" laneChangedFrom="0" laneChangedTo="0"/>
        <edge id="-1092037414" sampledSeconds="0.00" departed="0" arrived="0" entered="0" left="0" laneChangedFrom="0" laneChangedTo="0"/>
        <edge id="-1092277111#0" sampledSeconds="0.00" departed="0" arrived="0" entered="0" left="0" laneChangedFrom="0" laneChangedTo="0"/>
        <edge id="-1092277111#1" sampledSeconds="0.00" departed="0" arrived="0" entered="0" left="0" laneChangedFrom="0" laneChangedTo="0"/>
        <edge id="-1092277112" sampledSeconds="0.00" departed="0" arrived="0" entered="0" left="0" laneChangedFrom="0" laneChangedTo="0"/>
        <edge id="-1092277113" sampledSeconds="0.00" departed="0" arrived="0" entered="0" left="0" laneChangedFrom="0" laneChangedTo="0"/>
        <edge id="-1092277114#0" sampledSeconds="0.00" departed="0" arrived="0" entered="0" left="0" laneChangedFrom="0" laneChangedTo="0"/>
        <edge id="-1092277114#1" sampledSeconds="0.00" departed="0" arrived="0" entered="0" left="0" laneChangedFrom="0" laneChangedTo="0"/>
        <edge id="-1099375861" sampledSeconds="0.00" departed="0" arrived="0" entered="0" left="0" laneChangedFrom="0" laneChangedTo="0"/>
        <edge id="-1099375862" sampledSeconds="0.00" departed="0" arrived="0" entered="0" left="0" laneChangedFrom="0" laneChangedTo="0"/>
        <edge id="-1104041094" sampledSeconds="0.00" departed="0" arrived="0" entered="0" left="0" laneChangedFrom="0" laneChangedTo="0"/>
        <edge id="-1104477172" sampledSeconds="0.00" departed="0" arrived="0" entered="0" left="0" laneChangedFrom="0" laneChangedTo="0"/>
        <edge id="-1106583870" sampledSeconds="161.76" traveltime="12.81" overlapTraveltime="13.74" density="0.50" laneDensity="0.50" occupancy="0.24" waitingTime="0.00" timeLoss="19.95" speed="6.90" speedRelative="0.83" departed="2" arrived="5" entered="10" left="7" laneChangedFrom="0" laneChangedTo="0"/>
        <edge id="-1109746214" sampledSeconds="0.00" departed="0" arrived="0" entered="0" left="0" laneChangedFrom="0" laneChangedTo="0"/>
        <edge id="-1109746215" sampledSeconds="0.00" departed="0" arrived="0" entered="0" left="0" laneChangedFrom="0" laneChangedTo="0"/>
        <edge id="-1112471208" sampledSeconds="0.00" departed="0" arrived="0" entered="0" left="0" laneChangedFrom="0" laneChangedTo="0"/>
        <edge id="-1127569560" sampledSeconds="0.00" departed="0" arrived="0" entered="0" left="0" laneChangedFrom="0" laneChangedTo="0"/>
        <edge id="-1143919180" sampledSeconds="0.00" departed="0" arrived="0" entered="0" left="0" laneChangedFrom="0" laneChangedTo="0"/>
        <edge id="-1143919181" sampledSeconds="0.00" departed="0" arrived="0" entered="0" left="0" laneChangedFrom="0" laneChangedTo="0"/>
        <edge id="-1143919182" sampledSeconds="0.00" departed="0" arrived="0" entered="0" left="0" laneChangedFrom="0" laneChangedTo="0"/>
        <edge id="-1153265597#0" sampledSeconds="160.21" traveltime="2.14" overlapTraveltime="3.52" density="3.21" laneDensity="1.07" occupancy="0.39" waitingTime="0.00" timeLoss="38.63" speed="5.35" speedRelative="0.64" departed="0" arrived="15" entered="47" left="32" laneChangedFrom="1" laneChangedTo="1"/>
        <edge id="-1153265597#1" sampledSeconds="76.71" traveltime="0.91" overlapTraveltime="1.58" density="3.18" laneDensity="1.06" occupancy="0.31" waitingTime="0.00" timeLoss="7.72" speed="7.39" speedRelative="0.89" departed="1" arrived="2" entered="48" left="47" laneChangedFrom="1" laneChangedTo="1"/>
        <edge id="-1153265597#2" sampledSeconds="131.93" traveltime="2.04" overlapTraveltime="2.71" density="2.54" laneDensity="0.85" occupancy="0.32" waitingTime="0.00" timeLoss="16.65" speed="7.19" speedRelative="0.86" departed="4" arrived="2" entered="46" left="48" laneChangedFrom="8" laneChangedTo="8"/>
        <edge id="-1156329248" sampledSeconds="205.75" traveltime="0.34" overlapTraveltime="1.29" density="133.33" laneDensity="133.33" occupancy="4.91" waitingTime="43.32" timeLoss="98.18" speed="4.03" speedRelative="0.48" departed="5" arrived="2" entered="155" left="158" laneChangedFrom="0" laneChangedTo="0"/>
        <edge id="-1156329250" sampledSeconds="23.19" traveltime="0.17" overlapTraveltime="0.93" density="5.11" laneDensity="5.11" occupancy="0.53" waitingTime="0.00" timeLoss="4.19" speed="6.70" speedRelative="0.80" departed="2" arrived="1" entered="24" left="25" laneChangedFrom="0" laneChangedTo="0"/>
        <edge id="-1156337048" sampledSeconds="0.00" departed="0" arrived="0" entered="0" left="0" laneChangedFrom="0" laneChangedTo="0"/>
        <edge id="-1167764376" sampledSeconds="136.22" traveltime="9.60" overlapTraveltime="10.62" density="0.57" laneDensity="0.57" occupancy="0.26" waitingTime="3.00" timeLoss="23.14" speed="6.72" speedRelative="0.81" departed="2" arrived="1" entered="11" left="12" laneChangedFrom="0" laneChangedTo="0"/>
        <edge id="-1168195444#0" sampledSeconds="0.00" departed="0" arrived="0" entered="0" left="0" laneChangedFrom="0" laneChangedTo="0"/>
        <edge id="-1168195444#1" sampledSeconds="0.00" departed="0" arrived="0" entered="0" left="0" laneChangedFrom="0" laneChangedTo="0"/>
        <edge id="-1174838574" sampledSeconds="0.00" departed="0" arrived="0" entered="0" left="0" laneChangedFrom="0" laneChangedTo="0"/>
        <edge id="-1189500284" sampledSeconds="0.00" departed="0" arrived="0" entered="0" left="0" laneChangedFrom="0" laneChangedTo="0"/>
        <edge id="-119180342#0" sampledSeconds="132.94" traveltime="0.67" overlapTraveltime="1.17" density="5.40" laneDensity="2.70" occupancy="0.79" waitingTime="0.00" timeLoss="27.81" speed="10.13" speedRelative="0.73" departed="3" arrived="0" entered="112" left="115" laneChangedFrom="6" laneChangedTo="6"/>
        <edge id="-119180342#1" sampledSeconds="77.30" traveltime="0.24" overlapTraveltime="0.70" density="7.48" laneDensity="3.74" occupancy="0.70" waitingTime="0.00" timeLoss="13.86" speed="11.32" speedRelative="0.82" departed="3" arrived="2" entered="111" left="112" laneChangedFrom="0" laneChangedTo="0"/>
        <edge id="-1198622058" sampledSeconds="0.00" departed="0" arrived="0" entered="0" left="0" laneChangedFrom="0" laneChangedTo="0"/>
        <edge id="-1198622059" sampledSeconds="0.00" departed="0" arrived="0" entered="0" left="0" laneChangedFrom="0" laneChangedTo="0"/>
        <edge id="-121794822#0" sampledSeconds="504.69" traveltime="20.98" overlapTraveltime="23.26" density="3.11" laneDensity="3.11" occupancy="1.41" waitingTime="0.00" timeLoss="115.59" speed="2.15" speedRelative="0.77" departed="3" arrived="0" entered="19" left="22" laneChangedFrom="0" laneChangedTo="0"/>
        <edge id="-121794822#1" sampledSeconds="211.82" traveltime="8.03" overlapTraveltime="10.36" density="3.47" laneDensity="3.47" occupancy="1.35" waitingTime="0.00" timeLoss="50.11" speed="2.12" speedRelative="0.76" departed="1" arrived="2" entered="20" left="19" laneChangedFrom="0" laneChangedTo="0"/>
        <edge id="-121794822#3" sampledSeconds="289.10" traveltime="5.38" overlapTraveltime="7.78" density="7.13" laneDensity="7.13" occupancy="2.49" waitingTime="0.00" timeLoss="67.65" speed="2.09" speedRelative="0.75" departed="2" arrived="1" entered="36" left="37" laneChangedFrom="0" laneChangedTo="0"/>
        <edge id="-121794822#5" sampledSeconds="275.56" traveltime="9.24" overlapTraveltime="11.68" density="3.83" laneDensity="3.83" occupancy="1.53" waitingTime="1.00" timeLoss="58.24" speed="2.14" speedRelative="0.77" departed="2" arrived="0" entered="22" left="24" laneChangedFrom="0" laneChangedTo="0"/>
        <edge id="-121794822#6" sampledSeconds="51.92" traveltime="1.92" overlapTraveltime="4.09" density="3.42" laneDensity="3.42" occupancy="0.80" waitingTime="0.00" timeLoss="10.59" speed="2.26" speedRelative="0.81" departed="4" arrived="3" entered="12" left="13" laneChangedFrom="0" laneChangedTo="0"/>
        <edge id="-121794822#7" sampledSeconds="59.71" traveltime="2.90" overlapTraveltime="5.18" density="2.60" laneDensity="2.60" occupancy="0.73" waitingTime="0.00" timeLoss="13.45" speed="2.20" speedRelative="0.79" departed="1" arrived="0" entered="11" left="12" laneChangedFrom="0" laneChangedTo="0"/>
        <edge id="-121794822#8" sampledSeconds="44.36" traveltime="3.14" overlapTraveltime="5.76" density="2.05" laneDensity="2.05" occupancy="0.56" waitingTime="0.00" timeLoss="12.49" speed="1.91" speedRelative="0.69" departed="2" arrived="1" entered="7" left="8" laneChangedFrom="0" laneChangedTo="0"/>
        <edge id="-121794822#9" sampledSeconds="27.20" traveltime="1.27" overlapTraveltime="3.81" density="3.07" laneDensity="3.07" occupancy="0.51" waitingTime="0.00" timeLoss="6.98" speed="1.96" speedRelative="0.70" departed="1" arrived="1" entered="7" left="7" laneChangedFrom="0" laneChangedTo="0"/>
        <edge id="-121794824" sampledSeconds="367.73" traveltime="36.82" overlapTraveltime="39.25" density="1.35" laneDensity="1.35" occupancy="0.65" waitingTime="9.00" timeLoss="92.36" speed="2.06" speedRelative="0.74" departed="10" arrived="0" entered="0" left="10" laneChangedFrom="0" laneChangedTo="0"/>
        <edge id="-121794825#0" sampledSeconds="117.38" traveltime="0.58" overlapTraveltime="3.00" density="133.33" laneDensity="133.33" occupancy="2.89" waitingTime="18.00" timeLoss="44.04" speed="1.73" speedRelative="0.62" departed="1" arrived="1" entered="39" left="39" laneChangedFrom="0" laneChangedTo="0"/>
        <edge id="-121794825#1" sampledSeconds="175.09" traveltime="4.13" overlapTraveltime="6.71" density="9.02" laneDensity="9.02" occupancy="2.96" waitingTime="36.00" timeLoss="77.19" speed="1.55" speedRelative="0.56" departed="3" arrived="1" entered="25" left="27" laneChangedFrom="0" laneChangedTo="0"/>
        <edge id="-121794825#2" sampledSeconds="527.30" traveltime="18.35" overlapTraveltime="20.65" density="3.83" laneDensity="3.83" occupancy="1.70" waitingTime="0.00" timeLoss="126.06" speed="2.09" speedRelative="0.75" departed="3" arrived="1" entered="23" left="25" laneChangedFrom="0" laneChangedTo="0"/>
        <edge id="-121794825#3" sampledSeconds="25.77" overlapTraveltime="4.98" density="1.54" laneDensity="1.54" occupancy="0.40" waitingTime="0.00" timeLoss="7.22" speed="1.94" speedRelative="0.70" departed="10" arrived="0" entered="0" left="10" laneChangedFrom="0" laneChangedTo="0"/>
        <edge id="-121794827" sampledSeconds="362.47" traveltime="31.24" overlapTraveltime="33.62" density="1.56" laneDensity="1.56" occupancy="0.73" waitingTime="3.00" timeLoss="84.31" speed="2.07" speedRelative="0.74" departed="3" arrived="0" entered="8" left="11" laneChangedFrom="0" laneChangedTo="0"/>
        <edge id="-1230294701" sampledSeconds="175.47" traveltime="5.47" overlapTraveltime="6.51" density="1.86" laneDensity="1.86" occupancy="0.78" waitingTime="0.00" timeLoss="20.07" speed="4.78" speedRelative="0.86" departed="0" arrived="1" entered="27" left="26" laneChangedFrom="0" laneChangedTo="0"/>
        <edge id="-1236138839" sampledSeconds="0.00" departed="0" arrived="0" entered="0" left="0" laneChangedFrom="0" laneChangedTo="0"/>
        <edge id="-1236138840" sampledSeconds="0.00" departed="0" arrived="0" entered="0" left="0" laneChangedFrom="0" laneChangedTo="0"/>
        <edge id="-1236138841" sampledSeconds="0.00" departed="0" arrived="0" entered="0" left="0" laneChangedFrom="0" laneChangedTo="0"/>
        <edge id="-1236138842" sampledSeconds="0.00" departed="0" arrived="0" entered="0" left="0" laneChangedFrom="0" laneChangedTo="0"/>
        <edge id="-1236138843" sampledSeconds="0.00" departed="0" arrived="0" entered="0" left="0" laneChangedFrom="0" laneChangedTo="0"/>
        <edge id="-1236456853#0" sampledSeconds="0.00" departed="0" arrived="0" entered="0" left="0" laneChangedFrom="0" laneChangedTo="0"/>
        <edge id="-1236456853#1" sampledSeconds="0.00" departed="0" arrived="0" entered="0" left="0" laneChangedFrom="0" laneChangedTo="0"/>
        <edge id="-1236456856" sampledSeconds="0.00" departed="0" arrived="0" entered="0" left="0" laneChangedFrom="0" laneChangedTo="0"/>
        <edge id="-1238081827" sampledSeconds="0.00" departed="0" arrived="0" entered="0" left="0" laneChangedFrom="0" laneChangedTo="0"/>
        <edge id="-1238081828#0" sampledSeconds="0.00" departed="0" arrived="0" entered="0" left="0" laneChangedFrom="0" laneChangedTo="0"/>
        <edge id="-1238081828#1" sampledSeconds="0.00" departed="0" arrived="0" entered="0" left="0" laneChangedFrom="0" laneChangedTo="0"/>
        <edge id="-1239207125" sampledSeconds="0.00" departed="0" arrived="0" entered="0" left="0" laneChangedFrom="0" laneChangedTo="0"/>
        <edge id="-1239207126" sampledSeconds="0.00" departed="0" arrived="0" entered="0" left="0" laneChangedFrom="0" laneChangedTo="0"/>
        <edge id="-1239207127#0" sampledSeconds="0.00" departed="0" arrived="0" entered="0" left="0" laneChangedFrom="0" laneChangedTo="0"/>
        <edge id="-1239207127#1" sampledSeconds="0.00" departed="0" arrived="0" entered="0" left="0" laneChangedFrom="0" laneChangedTo="0"/>
        <edge id="-1239219870" sampledSeconds="0.00" departed="0" arrived="0" entered="0" left="0" laneChangedFrom="0" laneChangedTo="0"/>
        <edge id="-1239219871" sampledSeconds="0.00" departed="0" arrived="0" entered="0" left="0" laneChangedFrom="0" laneChangedTo="0"/>
        <edge id="-1239219872#0" sampledSeconds="0.00" departed="0" arrived="0" entered="0" left="0" laneChangedFrom="0" laneChangedTo="0"/>
        <edge id="-1239219872#1" sampledSeconds="0.00" departed="0" arrived="0" entered="0" left="0" laneChangedFrom="0" laneChangedTo="0"/>
        <edge id="-1245256709" sampledSeconds="0.00" departed="0" arrived="0" entered="0" left="0" laneChangedFrom="0" laneChangedTo="0"/>
        <edge id="-1245258622" sampledSeconds="0.00" departed="0" arrived="0" entered="0" left="0" laneChangedFrom="0" laneChangedTo="0"/>
        <edge id="-1254957909" sampledSeconds="0.00" departed="0" arrived="0" entered="0" left="0" laneChangedFrom="0" laneChangedTo="0"/>
        <edge id="-1263793722#0" sampledSeconds="39.80" traveltime="1.94" overlapTraveltime="3.20" density="1.12" laneDensity="1.12" occupancy="0.36" waitingTime="0.00" timeLoss="13.63" speed="4.65" speedRelative="0.56" departed="0" arrived="6" entered="13" left="7" laneChangedFrom="0" laneChangedTo="0"/>
        <edge id="-1263793722#1" sampledSeconds="18.06" traveltime="0.26" overlapTraveltime="1.21" density="2.52" laneDensity="2.52" occupancy="0.39" waitingTime="0.00" timeLoss="5.53" speed="5.78" speedRelative="0.69" departed="4" arrived="4" entered="13" left="13" laneChangedFrom="0" laneChangedTo="0"/>
        <edge id="-1263793722#2" sampledSeconds="288.40" traveltime="18.68" overlapTraveltime="19.33" density="0.57" laneDensity="0.57" occupancy="0.28" waitingTime="0.00" timeLoss="23.89" speed="7.52" speedRelative="0.90" departed="1" arrived="2" entered="14" left="13" laneChangedFrom="0" laneChangedTo="0"/>
        <edge id="-1263793723" sampledSeconds="82.50" traveltime="4.46" overlapTraveltime="5.28" density="0.74" laneDensity="0.74" occupancy="0.32" waitingTime="0.00" timeLoss="11.60" speed="6.80" speedRelative="0.82" departed="2" arrived="1" entered="14" left="15" laneChangedFrom="0" laneChangedTo="0"/>
        <edge id="-1267194155#0" sampledSeconds="200.99" traveltime="4.22" overlapTraveltime="5.19" density="1.88" laneDensity="1.88" occupancy="0.79" waitingTime="0.00" timeLoss="29.35" speed="6.69" speedRelative="0.80" departed="1" arrived="1" entered="38" left="38" laneChangedFrom="0" laneChangedTo="0"/>
        <edge id="-1267194155#1" sampledSeconds="67.24" traveltime="1.10" overlapTraveltime="1.80" density="2.57" laneDensity="2.57" occupancy="0.78" waitingTime="0.00" timeLoss="12.12" speed="6.82" speedRelative="0.82" departed="3" arrived="1" entered="36" left="38" laneChangedFrom="0" laneChangedTo="0"/>
        <edge id="-1267194155#2" sampledSeconds="33.26" traveltime="0.14" overlapTraveltime="0.87" density="8.48" laneDensity="8.48" occupancy="0.77" waitingTime="0.00" timeLoss="5.45" speed="7.00" speedRelative="0.84" departed="3" arrived="3" entered="36" left="36" laneChangedFrom="0" laneChangedTo="0"/>
        <edge id="-1298817713" sampledSeconds="37.35" traveltime="1.52" overlapTraveltime="2.70" density="1.27" laneDensity="1.27" occupancy="0.41" waitingTime="0.00" timeLoss="8.70" speed="4.86" speedRelative="0.58" departed="0" arrived="1" entered="14" left="13" laneChangedFrom="0" laneChangedTo="0"/>
        <edge id="-1298817714" sampledSeconds="70.05" traveltime="3.84" overlapTraveltime="4.65" density="0.80" laneDensity="0.80" occupancy="0.34" waitingTime="0.00" timeLoss="14.79" speed="6.30" speedRelative="0.76" departed="5" arrived="2" entered="11" left="14" laneChangedFrom="0" laneChangedTo="0"/>
        <edge id="-1305384085" sampledSeconds="0.00" departed="0" arrived="0" entered="0" left="0" laneChangedFrom="0" laneChangedTo="0"/>
        <edge id="-1305384086" sampledSeconds="0.00" departed="0" arrived="0" entered="0" left="0" laneChangedFrom="0" laneChangedTo="0"/>
        <edge id="-1305384087" sampledSeconds="0.00" departed="0" arrived="0" entered="0" left="0" laneChangedFrom="0" laneChangedTo="0"/>
        <edge id="-1305393686" sampledSeconds="0.00" departed="0" arrived="0" entered="0" left="0" laneChangedFrom="0" laneChangedTo="0"/>
        <edge id="-1305393687" sampledSeconds="0.00" departed="0" arrived="0" entered="0" left="0" laneChangedFrom="0" laneChangedTo="0"/>
        <edge id="-1305393688" sampledSeconds="0.00" departed="0" arrived="0" entered="0" left="0" laneChangedFrom="0" laneChangedTo="0"/>
        <edge id="-1307684786#0" sampledSeconds="72.04" traveltime="0.08" overlapTraveltime="0.97" density="100.06" laneDensity="100.06" occupancy="1.87" waitingTime="2.64" timeLoss="19.51" speed="5.35" speedRelative="0.64" departed="2" arrived="1" entered="73" left="74" laneChangedFrom="0" laneChangedTo="0"/>
        <edge id="-1307684786#1" sampledSeconds="595.18" traveltime="7.14" overlapTraveltime="8.07" density="3.29" laneDensity="3.29" occupancy="1.49" waitingTime="3.00" timeLoss="98.07" speed="6.84" speedRelative="0.82" departed="2" arrived="1" entered="72" left="73" laneChangedFrom="0" laneChangedTo="0"/>
        <edge id="-131916344" sampledSeconds="0.00" departed="0" arrived="0" entered="0" left="0" laneChangedFrom="0" laneChangedTo="0"/>
        <edge id="-131916348#0" sampledSeconds="0.00" departed="0" arrived="0" entered="0" left="0" laneChangedFrom="0" laneChangedTo="0"/>
        <edge id="-131916348#1" sampledSeconds="0.00" departed="0" arrived="0" entered="0" left="0" laneChangedFrom="0" laneChangedTo="0"/>
        <edge id="-131916348#2" sampledSeconds="0.00" departed="0" arrived="0" entered="0" left="0" laneChangedFrom="0" laneChangedTo="0"/>
        <edge id="-131916348#3" sampledSeconds="0.00" departed="0" arrived="0" entered="0" left="0" laneChangedFrom="0" laneChangedTo="0"/>
        <edge id="-131954303" sampledSeconds="0.00" departed="0" arrived="0" entered="0" left="0" laneChangedFrom="0" laneChangedTo="0"/>
        <edge id="-132043932" sampledSeconds="0.00" departed="0" arrived="0" entered="0" left="0" laneChangedFrom="0" laneChangedTo="0"/>
        <edge id="-132043933" sampledSeconds="0.00" departed="0" arrived="0" entered="0" left="0" laneChangedFrom="0" laneChangedTo="0"/>
        <edge id="-132043934#0" sampledSeconds="0.00" departed="0" arrived="0" entered="0" left="0" laneChangedFrom="0" laneChangedTo="0"/>
        <edge id="-132043934#1" sampledSeconds="0.00" departed="0" arrived="0" entered="0" left="0" laneChangedFrom="0" laneChangedTo="0"/>
        <edge id="-132148870#0" sampledSeconds="158.45" traveltime="0.62" overlapTraveltime="1.31" density="9.87" laneDensity="9.87" occupancy="2.33" waitingTime="0.00" timeLoss="19.26" speed="7.21" speedRelative="0.87" departed="1" arrived="3" entered="121" left="119" laneChangedFrom="0" laneChangedTo="0"/>
        <edge id="-132148870#1" sampledSeconds="88.81" traveltime="0.03" overlapTraveltime="0.73" density="123.35" laneDensity="123.35" occupancy="2.37" waitingTime="0.00" timeLoss="11.57" speed="7.14" speedRelative="0.86" departed="2" arrived="1" entered="120" left="121" laneChangedFrom="0" laneChangedTo="0"/>
        <edge id="-132148870#2" sampledSeconds="533.52" traveltime="2.32" overlapTraveltime="3.08" density="9.06" laneDensity="9.06" occupancy="3.48" waitingTime="0.00" timeLoss="65.84" speed="6.94" speedRelative="0.83" departed="2" arrived="2" entered="172" left="172" laneChangedFrom="0" laneChangedTo="0"/>
        <edge id="-132148870#3" sampledSeconds="222.43" traveltime="0.50" overlapTraveltime="1.28" density="22.55" laneDensity="22.55" occupancy="3.99" waitingTime="2.00" timeLoss="53.66" speed="6.06" speedRelative="0.73" departed="2" arrived="2" entered="173" left="173" laneChangedFrom="0" laneChangedTo="0"/>
        <edge id="-132148870#4" sampledSeconds="304.69" traveltime="0.90" overlapTraveltime="1.76" density="16.18" laneDensity="16.18" occupancy="4.31" waitingTime="2.00" timeLoss="85.77" speed="5.81" speedRelative="0.70" departed="1" arrived="1" entered="173" left="173" laneChangedFrom="0" laneChangedTo="0"/>
        <edge id="-132376876" sampledSeconds="0.00" departed="0" arrived="0" entered="0" left="0" laneChangedFrom="0" laneChangedTo="0"/>
        <edge id="-132376877" sampledSeconds="0.00" departed="0" arrived="0" entered="0" left="0" laneChangedFrom="0" laneChangedTo="0"/>
        <edge id="-132453746" sampledSeconds="0.00" departed="0" arrived="0" entered="0" left="0" laneChangedFrom="0" laneChangedTo="0"/>
        <edge id="-132453750#0" sampledSeconds="0.00" departed="0" arrived="0" entered="0" left="0" laneChangedFrom="0" laneChangedTo="0"/>
        <edge id="-132453750#1" sampledSeconds="0.00" departed="0" arrived="0" entered="0" left="0" laneChangedFrom="0" laneChangedTo="0"/>
        <edge id="-132453751" sampledSeconds="0.00" departed="0" arrived="0" entered="0" left="0" laneChangedFrom="0" laneChangedTo="0"/>
        <edge id="-132453755" sampledSeconds="0.00" departed="0" arrived="0" entered="0" left="0" laneChangedFrom="0" laneChangedTo="0"/>
        <edge id="-132453762" sampledSeconds="0.00" departed="0" arrived="0" entered="0" left="0" laneChangedFrom="0" laneChangedTo="0"/>
        <edge id="-132928975" sampledSeconds="0.00" departed="0" arrived="0" entered="0" left="0" laneChangedFrom="0" laneChangedTo="0"/>
        <edge id="-132928976" sampledSeconds="0.00" departed="0" arrived="0" entered="0" left="0" laneChangedFrom="0" laneChangedTo="0"/>
        <edge id="-13548482#0" sampledSeconds="0.00" departed="0" arrived="0" entered="0" left="0" laneChangedFrom="0" laneChangedTo="0"/>
        <edge id="-13548482#1" sampledSeconds="0.00" departed="0" arrived="0" entered="0" left="0" laneChangedFrom="0" laneChangedTo="0"/>