<?xml version="1.0" encoding="UTF-8"?>

<!-- generated on 2025-01-24 15:21:27 by Eclipse SUMO sumo Version 1.20.0
<configuration xmlns:xsi="http://www.w3.org/2001/XMLSchema-instance" xsi:noNamespaceSchemaLocation="http://sumo.dlr.de/xsd/sumoConfiguration.xsd">

    <input>
        <net-file value="/Users/dguastel/TULIPE_SCENARIO_OSM/tulipe_highways/tulipe_highways.rev.net.xml"/>
        <route-files value="output/0b68d8dd-3ff7-4363-9a3e-98d5fb5b4b89/routes.xml"/>
        <additional-files value="output/0b68d8dd-3ff7-4363-9a3e-98d5fb5b4b89/edgedata.no_roadworks.add.xml"/>
    </input>

    <output>
        <summary-output value="output/0b68d8dd-3ff7-4363-9a3e-98d5fb5b4b89/summary.out.xml"/>
        <tripinfo-output value="output/0b68d8dd-3ff7-4363-9a3e-98d5fb5b4b89/tripinfo.out.xml"/>
        <tripinfo-output.write-unfinished value="true"/>
    </output>

    <time>
        <begin value="0"/>
        <end value="7200"/>
    </time>

    <processing>
        <ignore-route-errors value="true"/>
        <random-depart-offset value="60.0"/>
    </processing>

    <random_number>
        <random value="true"/>
    </random_number>

</configuration>
-->

<meandata xmlns:xsi="http://www.w3.org/2001/XMLSchema-instance" xsi:noNamespaceSchemaLocation="http://sumo.dlr.de/xsd/meandata_file.xsd">
    <interval begin="3600.00" end="7200.00" id="3600_to_7200">
        <edge id="-1000933268" sampledSeconds="0.00" departed="0" arrived="0" entered="0" left="0" laneChangedFrom="0" laneChangedTo="0"/>
        <edge id="-1006106056#0" sampledSeconds="0.00" departed="0" arrived="0" entered="0" left="0" laneChangedFrom="0" laneChangedTo="0"/>
        <edge id="-1006106056#1" sampledSeconds="0.00" departed="0" arrived="0" entered="0" left="0" laneChangedFrom="0" laneChangedTo="0"/>
        <edge id="-1024105863" sampledSeconds="729.68" traveltime="36.12" overlapTraveltime="37.40" density="7.75" laneDensity="7.75" occupancy="3.81" waitingTime="638.00" timeLoss="655.37" speed="0.83" speedRelative="0.10" departed="1" arrived="0" entered="19" left="20" laneChangedFrom="0" laneChangedTo="0" teleported="2"/>
        <edge id="-1037986847" sampledSeconds="846.44" traveltime="126.83" overlapTraveltime="61.73" density="266.67" laneDensity="133.33" occupancy="9.63" waitingTime="823.00" timeLoss="837.17" speed="0.08" speedRelative="0.01" departed="6" arrived="0" entered="13" left="18" laneChangedFrom="1" laneChangedTo="1" teleported="1"/>
        <edge id="-1041085657#0" sampledSeconds="3599.14" traveltime="330.54" overlapTraveltime="458.19" density="124.50" laneDensity="124.50" occupancy="62.02" waitingTime="3549.00" timeLoss="3587.04" speed="0.03" speedRelative="0.00" departed="0" arrived="0" entered="64" left="63" laneChangedFrom="0" laneChangedTo="0" teleported="11"/>
        <edge id="-1041085657#1" sampledSeconds="7183.03" traveltime="552.08" overlapTraveltime="565.04" density="133.33" laneDensity="133.33" occupancy="72.70" waitingTime="7037.00" timeLoss="7154.59" speed="0.03" speedRelative="0.00" departed="0" arrived="0" entered="65" left="64" laneChangedFrom="0" laneChangedTo="0" teleported="1"/>
        <edge id="-1056901981#0" sampledSeconds="0.00" departed="0" arrived="0" entered="0" left="0" laneChangedFrom="0" laneChangedTo="0"/>
        <edge id="-1056901981#1" sampledSeconds="0.00" departed="0" arrived="0" entered="0" left="0" laneChangedFrom="0" laneChangedTo="0"/>
        <edge id="-1058267556#0" sampledSeconds="0.00" departed="0" arrived="0" entered="0" left="0" laneChangedFrom="0" laneChangedTo="0"/>
        <edge id="-1058267556#1" sampledSeconds="0.00" departed="0" arrived="0" entered="0" left="0" laneChangedFrom="0" laneChangedTo="0"/>
        <edge id="-1058268367" sampledSeconds="0.00" departed="0" arrived="0" entered="0" left="0" laneChangedFrom="0" laneChangedTo="0"/>
        <edge id="-1059828488" sampledSeconds="0.00" departed="0" arrived="0" entered="0" left="0" laneChangedFrom="0" laneChangedTo="0"/>
        <edge id="-1059828489" sampledSeconds="0.00" departed="0" arrived="0" entered="0" left="0" laneChangedFrom="0" laneChangedTo="0"/>
        <edge id="-1059828490" sampledSeconds="0.00" departed="0" arrived="0" entered="0" left="0" laneChangedFrom="0" laneChangedTo="0"/>
        <edge id="-1066438511#0" sampledSeconds="98.67" traveltime="1.09" overlapTraveltime="1.82" density="3.63" laneDensity="3.63" occupancy="1.11" waitingTime="0.00" timeLoss="15.14" speed="6.90" speedRelative="0.83" departed="2" arrived="1" entered="53" left="54" laneChangedFrom="0" laneChangedTo="0"/>
        <edge id="-1066438511#1" sampledSeconds="427.26" traveltime="7.34" overlapTraveltime="8.04" density="2.17" laneDensity="2.17" occupancy="0.99" waitingTime="0.00" timeLoss="45.12" speed="7.42" speedRelative="0.89" departed="2" arrived="0" entered="51" left="53" laneChangedFrom="0" laneChangedTo="0"/>
        <edge id="-1066478854#0" sampledSeconds="555.73" traveltime="5.60" overlapTraveltime="6.27" density="3.78" laneDensity="3.78" occupancy="1.68" waitingTime="0.00" timeLoss="61.31" speed="7.31" speedRelative="0.88" departed="3" arrived="3" entered="86" left="86" laneChangedFrom="0" laneChangedTo="0"/>
        <edge id="-1066478854#1" sampledSeconds="150.16" traveltime="1.05" overlapTraveltime="1.76" density="6.51" laneDensity="6.51" occupancy="1.81" waitingTime="0.00" timeLoss="32.17" speed="6.47" speedRelative="0.78" departed="2" arrived="0" entered="84" left="86" laneChangedFrom="0" laneChangedTo="0"/>
        <edge id="-1080960154#0" sampledSeconds="22.53" traveltime="0.82" overlapTraveltime="2.11" density="1.62" laneDensity="1.62" occupancy="0.37" waitingTime="0.00" timeLoss="4.78" speed="4.21" speedRelative="0.76" departed="3" arrived="0" entered="9" left="12" laneChangedFrom="0" laneChangedTo="0"/>
        <edge id="-1080960154#1" sampledSeconds="365.96" traveltime="35.75" overlapTraveltime="36.80" density="0.59" laneDensity="0.59" occupancy="0.29" waitingTime="0.00" timeLoss="45.60" speed="4.80" speedRelative="0.86" departed="1" arrived="1" entered="9" left="9" laneChangedFrom="0" laneChangedTo="0"/>
        <edge id="-1083809476#0" sampledSeconds="1380.48" traveltime="82.13" overlapTraveltime="90.43" density="133.33" laneDensity="133.33" occupancy="34.34" waitingTime="1348.00" timeLoss="1374.27" speed="0.07" speedRelative="0.01" departed="2" arrived="0" entered="17" left="18" laneChangedFrom="0" laneChangedTo="0" teleported="3"/>
        <edge id="-1083809476#1" sampledSeconds="2042.47" traveltime="45.73" overlapTraveltime="138.59" density="80.36" laneDensity="80.36" occupancy="21.82" waitingTime="1974.00" timeLoss="2025.13" speed="0.09" speedRelative="0.01" departed="5" arrived="1" entered="14" left="17" laneChangedFrom="0" laneChangedTo="0"/>
        <edge id="-1083809476#2" sampledSeconds="1974.10" traveltime="84.80" overlapTraveltime="128.23" density="8.59" laneDensity="8.59" occupancy="3.89" waitingTime="1735.00" timeLoss="1850.00" speed="0.54" speedRelative="0.06" departed="10" arrived="0" entered="7" left="14" laneChangedFrom="0" laneChangedTo="0"/>
        <edge id="-1089556862" sampledSeconds="0.00" departed="0" arrived="0" entered="0" left="0" laneChangedFrom="0" laneChangedTo="0"/>
        <edge id="-1092037414" sampledSeconds="0.00" departed="0" arrived="0" entered="0" left="0" laneChangedFrom="0" laneChangedTo="0"/>
        <edge id="-1092277111#0" sampledSeconds="0.00" departed="0" arrived="0" entered="0" left="0" laneChangedFrom="0" laneChangedTo="0"/>
        <edge id="-1092277111#1" sampledSeconds="0.00" departed="0" arrived="0" entered="0" left="0" laneChangedFrom="0" laneChangedTo="0"/>
        <edge id="-1092277112" sampledSeconds="0.00" departed="0" arrived="0" entered="0" left="0" laneChangedFrom="0" laneChangedTo="0"/>
        <edge id="-1092277113" sampledSeconds="0.00" departed="0" arrived="0" entered="0" left="0" laneChangedFrom="0" laneChangedTo="0"/>
        <edge id="-1092277114#0" sampledSeconds="0.00" departed="0" arrived="0" entered="0" left="0" laneChangedFrom="0" laneChangedTo="0"/>
        <edge id="-1092277114#1" sampledSeconds="0.00" departed="0" arrived="0" entered="0" left="0" laneChangedFrom="0" laneChangedTo="0"/>
        <edge id="-1099375861" sampledSeconds="0.00" departed="0" arrived="0" entered="0" left="0" laneChangedFrom="0" laneChangedTo="0"/>
        <edge id="-1099375862" sampledSeconds="0.00" departed="0" arrived="0" entered="0" left="0" laneChangedFrom="0" laneChangedTo="0"/>
        <edge id="-1104041094" sampledSeconds="0.00" departed="0" arrived="0" entered="0" left="0" laneChangedFrom="0" laneChangedTo="0"/>
        <edge id="-1104477172" sampledSeconds="0.00" departed="0" arrived="0" entered="0" left="0" laneChangedFrom="0" laneChangedTo="0"/>
        <edge id="-1106583870" sampledSeconds="508.95" traveltime="73.20" overlapTraveltime="74.94" density="1.57" laneDensity="1.57" occupancy="0.78" waitingTime="411.00" timeLoss="427.88" speed="1.26" speedRelative="0.15" departed="2" arrived="1" entered="5" left="5" laneChangedFrom="0" laneChangedTo="0"/>
        <edge id="-1109746214" sampledSeconds="0.00" departed="0" arrived="0" entered="0" left="0" laneChangedFrom="0" laneChangedTo="0"/>
        <edge id="-1109746215" sampledSeconds="0.00" departed="0" arrived="0" entered="0" left="0" laneChangedFrom="0" laneChangedTo="0"/>
        <edge id="-1112471208" sampledSeconds="0.00" departed="0" arrived="0" entered="0" left="0" laneChangedFrom="0" laneChangedTo="0"/>
        <edge id="-1127569560" sampledSeconds="0.00" departed="0" arrived="0" entered="0" left="0" laneChangedFrom="0" laneChangedTo="0"/>
        <edge id="-1143919180" sampledSeconds="0.00" departed="0" arrived="0" entered="0" left="0" laneChangedFrom="0" laneChangedTo="0"/>
        <edge id="-1143919181" sampledSeconds="0.00" departed="0" arrived="0" entered="0" left="0" laneChangedFrom="0" laneChangedTo="0"/>
        <edge id="-1143919182" sampledSeconds="0.00" departed="0" arrived="0" entered="0" left="0" laneChangedFrom="0" laneChangedTo="0"/>
        <edge id="-1153265597#0" sampledSeconds="112.51" traveltime="2.40" overlapTraveltime="3.90" density="2.26" laneDensity="0.75" occupancy="0.27" waitingTime="0.00" timeLoss="33.04" speed="4.83" speedRelative="0.58" departed="0" arrived="5" entered="29" left="24" laneChangedFrom="5" laneChangedTo="5"/>
        <edge id="-1153265597#1" sampledSeconds="44.85" traveltime="0.95" overlapTraveltime="1.63" density="1.86" laneDensity="0.62" occupancy="0.19" waitingTime="0.00" timeLoss="5.91" speed="7.18" speedRelative="0.86" departed="3" arrived="1" entered="27" left="29" laneChangedFrom="0" laneChangedTo="0"/>
        <edge id="-1153265597#2" sampledSeconds="69.90" traveltime="1.93" overlapTraveltime="2.59" density="1.34" laneDensity="0.45" occupancy="0.17" waitingTime="0.00" timeLoss="6.40" speed="7.51" speedRelative="0.90" departed="0" arrived="0" entered="27" left="27" laneChangedFrom="0" laneChangedTo="0"/>
        <edge id="-1156329248" sampledSeconds="1513.36" traveltime="11.62" overlapTraveltime="15.74" density="133.33" laneDensity="133.33" occupancy="26.25" waitingTime="1409.91" timeLoss="1448.36" speed="0.33" speedRelative="0.04" departed="3" arrived="1" entered="103" left="104" laneChangedFrom="0" laneChangedTo="0" teleported="3"/>
        <edge id="-1156329250" sampledSeconds="7.13" traveltime="0.17" overlapTraveltime="0.95" density="1.57" laneDensity="1.57" occupancy="0.16" waitingTime="0.00" timeLoss="1.34" speed="6.59" speedRelative="0.79" departed="1" arrived="1" entered="7" left="7" laneChangedFrom="0" laneChangedTo="0"/>
        <edge id="-1156337048" sampledSeconds="0.00" departed="0" arrived="0" entered="0" left="0" laneChangedFrom="0" laneChangedTo="0"/>
        <edge id="-1167764376" sampledSeconds="66.86" traveltime="10.48" overlapTraveltime="11.41" density="0.28" laneDensity="0.28" occupancy="0.13" waitingTime="0.00" timeLoss="11.20" speed="6.25" speedRelative="0.75" departed="2" arrived="0" entered="4" left="6" laneChangedFrom="0" laneChangedTo="0"/>
        <edge id="-1168195444#0" sampledSeconds="0.00" departed="0" arrived="0" entered="0" left="0" laneChangedFrom="0" laneChangedTo="0"/>
        <edge id="-1168195444#1" sampledSeconds="0.00" departed="0" arrived="0" entered="0" left="0" laneChangedFrom="0" laneChangedTo="0"/>
        <edge id="-1174838574" sampledSeconds="0.00" departed="0" arrived="0" entered="0" left="0" laneChangedFrom="0" laneChangedTo="0"/>
        <edge id="-1189500284" sampledSeconds="0.00" departed="0" arrived="0" entered="0" left="0" laneChangedFrom="0" laneChangedTo="0"/>
        <edge id="-119180342#0" sampledSeconds="102.61" traveltime="0.87" overlapTraveltime="1.42" density="4.17" laneDensity="2.08" occupancy="0.66" waitingTime="12.00" timeLoss="31.39" speed="8.32" speedRelative="0.60" departed="2" arrived="0" entered="71" left="73" laneChangedFrom="5" laneChangedTo="5"/>
        <edge id="-119180342#1" sampledSeconds="49.69" traveltime="0.24" overlapTraveltime="0.71" density="4.81" laneDensity="2.40" occupancy="0.44" waitingTime="0.00" timeLoss="8.87" speed="11.15" speedRelative="0.80" departed="2" arrived="1" entered="70" left="71" laneChangedFrom="1" laneChangedTo="1"/>
        <edge id="-1198622058" sampledSeconds="0.00" departed="0" arrived="0" entered="0" left="0" laneChangedFrom="0" laneChangedTo="0"/>
        <edge id="-1198622059" sampledSeconds="0.00" departed="0" arrived="0" entered="0" left="0" laneChangedFrom="0" laneChangedTo="0"/>
        <edge id="-121794822#0" sampledSeconds="469.10" traveltime="21.33" overlapTraveltime="32.50" density="2.89" laneDensity="2.89" occupancy="1.25" waitingTime="125.00" timeLoss="206.40" speed="1.54" speedRelative="0.55" departed="4" arrived="1" entered="11" left="14" laneChangedFrom="0" laneChangedTo="0"/>
        <edge id="-121794822#1" sampledSeconds="111.46" traveltime="8.10" overlapTraveltime="10.35" density="1.83" laneDensity="1.83" occupancy="0.72" waitingTime="0.00" timeLoss="26.87" speed="2.12" speedRelative="0.76" departed="1" arrived="0" entered="10" left="11" laneChangedFrom="0" laneChangedTo="0"/>
        <edge id="-121794822#3" sampledSeconds="1532.15" traveltime="35.92" overlapTraveltime="38.70" density="37.80" laneDensity="37.80" occupancy="15.05" waitingTime="1219.00" timeLoss="1298.96" speed="0.42" speedRelative="0.15" departed="2" arrived="1" entered="41" left="40" laneChangedFrom="0" laneChangedTo="0" teleported="1"/>
        <edge id="-121794822#5" sampledSeconds="1229.33" traveltime="50.97" overlapTraveltime="54.02" density="17.09" laneDensity="17.09" occupancy="8.19" waitingTime="950.00" timeLoss="1023.06" speed="0.46" speedRelative="0.17" departed="2" arrived="1" entered="23" left="22" laneChangedFrom="0" laneChangedTo="0"/>
        <edge id="-121794822#6" sampledSeconds="54.05" traveltime="1.90" overlapTraveltime="4.16" density="3.56" laneDensity="3.56" occupancy="0.79" waitingTime="0.00" timeLoss="11.78" speed="2.22" speedRelative="0.80" departed="0" arrived="0" entered="13" left="13" laneChangedFrom="0" laneChangedTo="0"/>
        <edge id="-121794822#7" sampledSeconds="59.44" traveltime="2.85" overlapTraveltime="5.10" density="2.58" laneDensity="2.58" occupancy="0.75" waitingTime="0.00" timeLoss="12.32" speed="2.23" speedRelative="0.80" departed="3" arrived="0" entered="10" left="13" laneChangedFrom="0" laneChangedTo="0"/>
        <edge id="-121794822#8" sampledSeconds="65.00" traveltime="2.75" overlapTraveltime="5.12" density="3.00" laneDensity="3.00" occupancy="0.83" waitingTime="0.00" timeLoss="15.36" speed="2.15" speedRelative="0.77" departed="5" arrived="0" entered="10" left="15" laneChangedFrom="0" laneChangedTo="0"/>
        <edge id="-121794822#9" sampledSeconds="32.31" traveltime="1.18" overlapTraveltime="3.40" density="3.65" laneDensity="3.65" occupancy="0.61" waitingTime="0.00" timeLoss="7.22" speed="2.20" speedRelative="0.79" departed="3" arrived="1" entered="8" left="10" laneChangedFrom="0" laneChangedTo="0"/>
        <edge id="-121794824" sampledSeconds="635.84" traveltime="49.95" overlapTraveltime="52.47" density="2.33" laneDensity="2.33" occupancy="1.14" waitingTime="154.00" timeLoss="272.74" speed="1.54" speedRelative="0.55" departed="13" arrived="0" entered="0" left="12" laneChangedFrom="0" laneChangedTo="0"/>
        <edge id="-121794825#0" sampledSeconds="617.46" traveltime="20.03" overlapTraveltime="21.35" density="133.33" laneDensity="133.33" occupancy="9.49" waitingTime="537.38" timeLoss="563.04" speed="0.24" speedRelative="0.09" departed="3" arrived="0" entered="30" left="32" laneChangedFrom="0" laneChangedTo="0" teleported="1"/>
        <edge id="-121794825#1" sampledSeconds="995.65" traveltime="47.84" overlapTraveltime="53.74" density="51.31" laneDensity="51.31" occupancy="24.51" waitingTime="897.00" timeLoss="925.71" speed="0.19" speedRelative="0.07" departed="0" arrived="0" entered="20" left="19" laneChangedFrom="0" laneChangedTo="0" teleported="2"/>
        <edge id="-121794825#2" sampledSeconds="1812.04" traveltime="79.76" overlapTraveltime="82.86" density="13.16" laneDensity="13.16" occupancy="6.40" waitingTime="1357.00" timeLoss="1470.84" speed="0.52" speedRelative="0.19" departed="1" arrived="0" entered="22" left="20" laneChangedFrom="0" laneChangedTo="0"/>
        <edge id="-121794825#3" sampledSeconds="16.16" overlapTraveltime="4.46" density="0.96" laneDensity="0.96" occupancy="0.25" waitingTime="0.00" timeLoss="3.73" speed="2.17" speedRelative="0.78" departed="7" arrived="0" entered="0" left="7" laneChangedFrom="0" laneChangedTo="0"/>
        <edge id="-121794827" sampledSeconds="975.49" traveltime="63.04" overlapTraveltime="65.98" density="4.20" laneDensity="4.20" occupancy="2.03" waitingTime="496.00" timeLoss="607.94" speed="1.05" speedRelative="0.38" departed="0" arrived="1" entered="15" left="13" laneChangedFrom="0" laneChangedTo="0" teleported="1"/>
        <edge id="-1230294701" sampledSeconds="11258.88" traveltime="452.89" overlapTraveltime="656.83" density="119.60" laneDensity="119.60" occupancy="53.39" waitingTime="10905.00" timeLoss="11162.32" speed="0.05" speedRelative="0.01" departed="0" arrived="0" entered="19" left="16" laneChangedFrom="0" laneChangedTo="0"/>
        <edge id="-1236138839" sampledSeconds="0.00" departed="0" arrived="0" entered="0" left="0" laneChangedFrom="0" laneChangedTo="0"/>
        <edge id="-1236138840" sampledSeconds="0.00" departed="0" arrived="0" entered="0" left="0" laneChangedFrom="0" laneChangedTo="0"/>
        <edge id="-1236138841" sampledSeconds="0.00" departed="0" arrived="0" entered="0" left="0" laneChangedFrom="0" laneChangedTo="0"/>
        <edge id="-1236138842" sampledSeconds="0.00" departed="0" arrived="0" entered="0" left="0" laneChangedFrom="0" laneChangedTo="0"/>
        <edge id="-1236138843" sampledSeconds="0.00" departed="0" arrived="0" entered="0" left="0" laneChangedFrom="0" laneChangedTo="0"/>
        <edge id="-1236456853#0" sampledSeconds="0.00" departed="0" arrived="0" entered="0" left="0" laneChangedFrom="0" laneChangedTo="0"/>
        <edge id="-1236456853#1" sampledSeconds="0.00" departed="0" arrived="0" entered="0" left="0" laneChangedFrom="0" laneChangedTo="0"/>
        <edge id="-1236456856" sampledSeconds="0.00" departed="0" arrived="0" entered="0" left="0" laneChangedFrom="0" laneChangedTo="0"/>
        <edge id="-1238081827" sampledSeconds="0.00" departed="0" arrived="0" entered="0" left="0" laneChangedFrom="0" laneChangedTo="0"/>
        <edge id="-1238081828#0" sampledSeconds="0.00" departed="0" arrived="0" entered="0" left="0" laneChangedFrom="0" laneChangedTo="0"/>
        <edge id="-1238081828#1" sampledSeconds="0.00" departed="0" arrived="0" entered="0" left="0" laneChangedFrom="0" laneChangedTo="0"/>
        <edge id="-1239207125" sampledSeconds="0.00" departed="0" arrived="0" entered="0" left="0" laneChangedFrom="0" laneChangedTo="0"/>
        <edge id="-1239207126" sampledSeconds="0.00" departed="0" arrived="0" entered="0" left="0" laneChangedFrom="0" laneChangedTo="0"/>
        <edge id="-1239207127#0" sampledSeconds="0.00" departed="0" arrived="0" entered="0" left="0" laneChangedFrom="0" laneChangedTo="0"/>
        <edge id="-1239207127#1" sampledSeconds="0.00" departed="0" arrived="0" entered="0" left="0" laneChangedFrom="0" laneChangedTo="0"/>
        <edge id="-1239219870" sampledSeconds="0.00" departed="0" arrived="0" entered="0" left="0" laneChangedFrom="0" laneChangedTo="0"/>
        <edge id="-1239219871" sampledSeconds="0.00" departed="0" arrived="0" entered="0" left="0" laneChangedFrom="0" laneChangedTo="0"/>
        <edge id="-1239219872#0" sampledSeconds="0.00" departed="0" arrived="0" entered="0" left="0" laneChangedFrom="0" laneChangedTo="0"/>
        <edge id="-1239219872#1" sampledSeconds="0.00" departed="0" arrived="0" entered="0" left="0" laneChangedFrom="0" laneChangedTo="0"/>
        <edge id="-1245256709" sampledSeconds="0.00" departed="0" arrived="0" entered="0" left="0" laneChangedFrom="0" laneChangedTo="0"/>
        <edge id="-1245258622" sampledSeconds="0.00" departed="0" arrived="0" entered="0" left="0" laneChangedFrom="0" laneChangedTo="0"/>
        <edge id="-1254957909" sampledSeconds="0.00" departed="0" arrived="0" entered="0" left="0" laneChangedFrom="0" laneChangedTo="0"/>
        <edge id="-1263793722#0" sampledSeconds="37.85" traveltime="2.03" overlapTraveltime="3.52" density="1.06" laneDensity="1.06" occupancy="0.35" waitingTime="0.00" timeLoss="13.91" speed="4.23" speedRelative="0.51" departed="0" arrived="2" entered="11" left="9" laneChangedFrom="0" laneChangedTo="0"/>
        <edge id="-1263793722#1" sampledSeconds="13.73" traveltime="0.25" overlapTraveltime="1.23" density="1.92" laneDensity="1.92" occupancy="0.29" waitingTime="0.00" timeLoss="4.50" speed="5.67" speedRelative="0.68" departed="3" arrived="1" entered="9" left="11" laneChangedFrom="0" laneChangedTo="0"/>
        <edge id="-1263793722#2" sampledSeconds="198.08" traveltime="19.50" overlapTraveltime="20.16" density="0.39" laneDensity="0.39" occupancy="0.19" waitingTime="0.00" timeLoss="22.46" speed="7.21" speedRelative="0.87" departed="5" arrived="1" entered="5" left="9" laneChangedFrom="0" laneChangedTo="0"/>
        <edge id="-1263793723" sampledSeconds="1825.36" traveltime="76.44" overlapTraveltime="143.50" density="16.40" laneDensity="16.40" occupancy="6.32" waitingTime="1716.00" timeLoss="1765.37" speed="0.25" speedRelative="0.03" departed="2" arrived="3" entered="13" left="9" laneChangedFrom="0" laneChangedTo="0"/>
        <edge id="-1267194155#0" sampledSeconds="1291.99" traveltime="58.15" overlapTraveltime="60.15" density="12.08" laneDensity="12.08" occupancy="5.95" waitingTime="1159.00" timeLoss="1190.97" speed="0.58" speedRelative="0.07" departed="4" arrived="1" entered="22" left="22" laneChangedFrom="0" laneChangedTo="0" teleported="1"/>
        <edge id="-1267194155#1" sampledSeconds="273.70" traveltime="12.99" overlapTraveltime="13.56" density="10.47" laneDensity="10.47" occupancy="4.94" waitingTime="234.00" timeLoss="242.58" speed="0.90" speedRelative="0.11" departed="2" arrived="1" entered="22" left="22" laneChangedFrom="0" laneChangedTo="0"/>
        <edge id="-1267194155#2" sampledSeconds="18.30" traveltime="0.15" overlapTraveltime="0.93" density="4.66" laneDensity="4.66" occupancy="0.43" waitingTime="0.00" timeLoss="3.41" speed="6.53" speedRelative="0.78" departed="2" arrived="1" entered="21" left="22" laneChangedFrom="0" laneChangedTo="0"/>
        <edge id="-1298817713" sampledSeconds="34.21" traveltime="1.74" overlapTraveltime="2.84" density="1.17" laneDensity="1.17" occupancy="0.40" waitingTime="0.00" timeLoss="10.59" speed="4.63" speedRelative="0.56" departed="5" arrived="0" entered="9" left="14" laneChangedFrom="0" laneChangedTo="0"/>
        <edge id="-1298817714" sampledSeconds="37.20" traveltime="3.64" overlapTraveltime="4.39" density="0.43" laneDensity="0.43" occupancy="0.18" waitingTime="0.00" timeLoss="7.41" speed="6.67" speedRelative="0.80" departed="3" arrived="0" entered="6" left="9" laneChangedFrom="0" laneChangedTo="0"/>
        <edge id="-1305384085" sampledSeconds="0.00" departed="0" arrived="0" entered="0" left="0" laneChangedFrom="0" laneChangedTo="0"/>
        <edge id="-1305384086" sampledSeconds="0.00" departed="0" arrived="0" entered="0" left="0" laneChangedFrom="0" laneChangedTo="0"/>
        <edge id="-1305384087" sampledSeconds="0.00" departed="0" arrived="0" entered="0" left="0" laneChangedFrom="0" laneChangedTo="0"/>
        <edge id="-1305393686" sampledSeconds="0.00" departed="0" arrived="0" entered="0" left="0" laneChangedFrom="0" laneChangedTo="0"/>
        <edge id="-1305393687" sampledSeconds="0.00" departed="0" arrived="0" entered="0" left="0" laneChangedFrom="0" laneChangedTo="0"/>
        <edge id="-1305393688" sampledSeconds="0.00" departed="0" arrived="0" entered="0" left="0" laneChangedFrom="0" laneChangedTo="0"/>
        <edge id="-1307684786#0" sampledSeconds="320.25" traveltime="1.94" overlapTraveltime="8.91" density="133.33" laneDensity="133.33" occupancy="7.90" waitingTime="273.33" timeLoss="292.90" speed="0.58" speedRelative="0.07" departed="2" arrived="1" entered="35" left="35" laneChangedFrom="0" laneChangedTo="0"/>
        <edge id="-1307684786#1" sampledSeconds="1043.91" traveltime="27.08" overlapTraveltime="30.14" density="5.77" laneDensity="5.77" occupancy="2.80" waitingTime="702.00" timeLoss="802.87" speed="1.83" speedRelative="0.22" departed="2" arrived="0" entered="33" left="35" laneChangedFrom="0" laneChangedTo="0"/>
        <edge id="-131916344" sampledSeconds="0.00" departed="0" arrived="0" entered="0" left="0" laneChangedFrom="0" laneChangedTo="0"/>
        <edge id="-131916348#0" sampledSeconds="0.00" departed="0" arrived="0" entered="0" left="0" laneChangedFrom="0" laneChangedTo="0"/>
        <edge id="-131916348#1" sampledSeconds="0.00" departed="0" arrived="0" entered="0" left="0" laneChangedFrom="0" laneChangedTo="0"/>
        <edge id="-131916348#2" sampledSeconds="0.00" departed="0" arrived="0" entered="0" left="0" laneChangedFrom="0" laneChangedTo="0"/>
        <edge id="-131916348#3" sampledSeconds="0.00" departed="0" arrived="0" entered="0" left="0" laneChangedFrom="0" laneChangedTo="0"/>
        <edge id="-131954303" sampledSeconds="0.00" departed="0" arrived="0" entered="0" left="0" laneChangedFrom="0" laneChangedTo="0"/>
        <edge id="-132043932" sampledSeconds="0.00" departed="0" arrived="0" entered="0" left="0" laneChangedFrom="0" laneChangedTo="0"/>
        <edge id="-132043933" sampledSeconds="0.00" departed="0" arrived="0" entered="0" left="0" laneChangedFrom="0" laneChangedTo="0"/>
        <edge id="-132043934#0" sampledSeconds="0.00" departed="0" arrived="0" entered="0" left="0" laneChangedFrom="0" laneChangedTo="0"/>
        <edge id="-132043934#1" sampledSeconds="0.00" departed="0" arrived="0" entered="0" left="0" laneChangedFrom="0" laneChangedTo="0"/>
        <edge id="-132148870#0" sampledSeconds="74.13" traveltime="0.61" overlapTraveltime="1.32" density="4.62" laneDensity="4.62" occupancy="1.10" waitingTime="0.00" timeLoss="10.70" speed="7.15" speedRelative="0.86" departed="2" arrived="1" entered="55" left="56" laneChangedFrom="0" laneChangedTo="0"/>
        <edge id="-132148870#1" sampledSeconds="39.92" traveltime="0.03" overlapTraveltime="0.72" density="55.45" laneDensity="55.45" occupancy="1.07" waitingTime="0.00" timeLoss="5.47" speed="7.24" speedRelative="0.87" departed="2" arrived="1" entered="54" left="55" laneChangedFrom="0" laneChangedTo="0"/>
        <edge id="-132148870#2" sampledSeconds="223.55" traveltime="2.30" overlapTraveltime="3.04" density="3.80" laneDensity="3.80" occupancy="1.45" waitingTime="0.00" timeLoss="30.34" speed="7.02" speedRelative="0.84" departed="2" arrived="0" entered="72" left="74" laneChangedFrom="0" laneChangedTo="0"/>
        <edge id="-132148870#3" sampledSeconds="94.18" traveltime="0.53" overlapTraveltime="1.39" density="9.55" laneDensity="9.55" occupancy="1.68" waitingTime="0.00" timeLoss="27.52" speed="5.56" speedRelative="0.67" departed="1" arrived="0" entered="67" left="68" laneChangedFrom="0" laneChangedTo="0"/>
        <edge id="-132148870#4" sampledSeconds="124.56" traveltime="0.91" overlapTraveltime="1.82" density="6.62" laneDensity="6.62" occupancy="1.76" waitingTime="0.00" timeLoss="38.16" speed="5.61" speedRelative="0.67" departed="2" arrived="3" entered="68" left="67" laneChangedFrom="0" laneChangedTo="0"/>
        <edge id="-132376876" sampledSeconds="0.00" departed="0" arrived="0" entered="0" left="0" laneChangedFrom="0" laneChangedTo="0"/>
        <edge id="-132376877" sampledSeconds="0.00" departed="0" arrived="0" entered="0" left="0" laneChangedFrom="0" laneChangedTo="0"/>
        <edge id="-132453746" sampledSeconds="0.00" departed="0" arrived="0" entered="0" left="0" laneChangedFrom="0" laneChangedTo="0"/>
        <edge id="-132453750#0" sampledSeconds="0.00" departed="0" arrived="0" entered="0" left="0" laneChangedFrom="0" laneChangedTo="0"/>
        <edge id="-132453750#1" sampledSeconds="0.00" departed="0" arrived="0" entered="0" left="0" laneChangedFrom="0" laneChangedTo="0"/>
        <edge id="-132453751" sampledSeconds="0.00" departed="0" arrived="0" entered="0" left="0" laneChangedFrom="0" laneChangedTo="0"/>
        <edge id="-132453755" sampledSeconds="0.00" departed="0" arrived="0" entered="0" left="0" laneChangedFrom="0" laneChangedTo="0"/>
        <edge id="-132453762" sampledSeconds="0.00" departed="0" arrived="0" entered="0" left="0" laneChangedFrom="0" laneChangedTo="0"/>
        <edge id="-132928975" sampledSeconds="0.00" departed="0" arrived="0" entered="0" left="0" laneChangedFrom="0" laneChangedTo="0"/>
        <edge id="-132928976" sampledSeconds="0.00" departed="0" arrived="0" entered="0" left="0" laneChangedFrom="0" laneChangedTo="0"/>