<?xml version="1.0" encoding="UTF-8"?>

<!-- generated on 2025-01-24 15:18:38 by Eclipse SUMO sumo Version 1.20.0
<configuration xmlns:xsi="http://www.w3.org/2001/XMLSchema-instance" xsi:noNamespaceSchemaLocation="http://sumo.dlr.de/xsd/sumoConfiguration.xsd">

    <input>
        <net-file value="/Users/dguastel/TULIPE_SCENARIO_OSM/tulipe_highways/tulipe_highways.rev.net.xml"/>
        <route-files value="output/0b68d8dd-3ff7-4363-9a3e-98d5fb5b4b89/routes.xml"/>
        <additional-files value="output/0b68d8dd-3ff7-4363-9a3e-98d5fb5b4b89/edgedata.add.xml,output/0b68d8dd-3ff7-4363-9a3e-98d5fb5b4b89/rerouter.add.xml"/>
    </input>

    <output>
        <summary-output value="output/0b68d8dd-3ff7-4363-9a3e-98d5fb5b4b89/summary.out.xml"/>
        <tripinfo-output value="output/0b68d8dd-3ff7-4363-9a3e-98d5fb5b4b89/tripinfo.withRoadworks.out.xml"/>
        <tripinfo-output.write-unfinished value="true"/>
    </output>

    <time>
        <begin value="0"/>
        <end value="7200"/>
    </time>

    <processing>
        <ignore-route-errors value="true"/>
        <random-depart-offset value="60.0"/>
    </processing>

    <random_number>
        <random value="true"/>
    </random_number>

</configuration>
-->

<meandata xmlns:xsi="http://www.w3.org/2001/XMLSchema-instance" xsi:noNamespaceSchemaLocation="http://sumo.dlr.de/xsd/meandata_file.xsd">
    <interval begin="3600.00" end="7200.00" id="3600_to_7200">
        <edge id="-1000933268" sampledSeconds="0.00" departed="0" arrived="0" entered="0" left="0" laneChangedFrom="0" laneChangedTo="0"/>
        <edge id="-1006106056#0" sampledSeconds="0.00" departed="0" arrived="0" entered="0" left="0" laneChangedFrom="0" laneChangedTo="0"/>
        <edge id="-1006106056#1" sampledSeconds="0.00" departed="0" arrived="0" entered="0" left="0" laneChangedFrom="0" laneChangedTo="0"/>
        <edge id="-1024105863" sampledSeconds="1748.47" traveltime="90.45" overlapTraveltime="111.43" density="18.58" laneDensity="18.58" occupancy="8.05" waitingTime="1648.00" timeLoss="1688.00" speed="0.28" speedRelative="0.03" departed="1" arrived="1" entered="15" left="16" laneChangedFrom="0" laneChangedTo="0" teleported="2"/>
        <edge id="-1037986847" sampledSeconds="1254.87" traveltime="65.05" overlapTraveltime="98.26" density="266.67" laneDensity="133.33" occupancy="16.19" waitingTime="1208.89" timeLoss="1246.65" speed="0.05" speedRelative="0.01" departed="6" arrived="1" entered="12" left="16" laneChangedFrom="1" laneChangedTo="1"/>
        <edge id="-1041085657#0" sampledSeconds="3027.52" traveltime="95.50" overlapTraveltime="101.95" density="104.73" laneDensity="104.73" occupancy="47.11" waitingTime="2909.00" timeLoss="2981.89" speed="0.13" speedRelative="0.02" departed="0" arrived="0" entered="32" left="31" laneChangedFrom="0" laneChangedTo="0" teleported="4"/>
        <edge id="-1041085657#1" sampledSeconds="4470.49" traveltime="123.82" overlapTraveltime="135.37" density="90.77" laneDensity="90.77" occupancy="44.68" waitingTime="4272.00" timeLoss="4398.90" speed="0.14" speedRelative="0.02" departed="0" arrived="0" entered="34" left="32" laneChangedFrom="0" laneChangedTo="0"/>
        <edge id="-1056901981#0" sampledSeconds="0.00" departed="0" arrived="0" entered="0" left="0" laneChangedFrom="0" laneChangedTo="0"/>
        <edge id="-1056901981#1" sampledSeconds="0.00" departed="0" arrived="0" entered="0" left="0" laneChangedFrom="0" laneChangedTo="0"/>
        <edge id="-1058267556#0" sampledSeconds="0.00" departed="0" arrived="0" entered="0" left="0" laneChangedFrom="0" laneChangedTo="0"/>
        <edge id="-1058267556#1" sampledSeconds="0.00" departed="0" arrived="0" entered="0" left="0" laneChangedFrom="0" laneChangedTo="0"/>
        <edge id="-1058268367" sampledSeconds="0.00" departed="0" arrived="0" entered="0" left="0" laneChangedFrom="0" laneChangedTo="0"/>
        <edge id="-1059828488" sampledSeconds="0.00" departed="0" arrived="0" entered="0" left="0" laneChangedFrom="0" laneChangedTo="0"/>
        <edge id="-1059828489" sampledSeconds="0.00" departed="0" arrived="0" entered="0" left="0" laneChangedFrom="0" laneChangedTo="0"/>
        <edge id="-1059828490" sampledSeconds="0.00" departed="0" arrived="0" entered="0" left="0" laneChangedFrom="0" laneChangedTo="0"/>
        <edge id="-1066438511#0" sampledSeconds="86.46" traveltime="1.10" overlapTraveltime="1.83" density="3.18" laneDensity="3.18" occupancy="0.98" waitingTime="0.00" timeLoss="13.60" speed="6.85" speedRelative="0.82" departed="2" arrived="0" entered="46" left="48" laneChangedFrom="0" laneChangedTo="0"/>
        <edge id="-1066438511#1" sampledSeconds="366.65" traveltime="7.30" overlapTraveltime="8.00" density="1.86" laneDensity="1.86" occupancy="0.85" waitingTime="0.00" timeLoss="36.39" speed="7.45" speedRelative="0.89" departed="2" arrived="0" entered="44" left="46" laneChangedFrom="0" laneChangedTo="0"/>
        <edge id="-1066478854#0" sampledSeconds="502.32" traveltime="5.56" overlapTraveltime="6.23" density="3.42" laneDensity="3.42" occupancy="1.52" waitingTime="0.00" timeLoss="52.51" speed="7.35" speedRelative="0.88" departed="3" arrived="2" entered="78" left="79" laneChangedFrom="0" laneChangedTo="0"/>
        <edge id="-1066478854#1" sampledSeconds="137.28" traveltime="1.06" overlapTraveltime="1.77" density="5.95" laneDensity="5.95" occupancy="1.66" waitingTime="0.00" timeLoss="28.94" speed="6.46" speedRelative="0.78" departed="2" arrived="1" entered="77" left="78" laneChangedFrom="0" laneChangedTo="0"/>
        <edge id="-1080960154#0" sampledSeconds="28.13" traveltime="1.14" overlapTraveltime="2.41" density="2.02" laneDensity="2.02" occupancy="0.49" waitingTime="1.00" timeLoss="9.21" speed="3.69" speedRelative="0.66" departed="3" arrived="0" entered="10" left="13" laneChangedFrom="0" laneChangedTo="0"/>
        <edge id="-1080960154#1" sampledSeconds="359.22" traveltime="34.62" overlapTraveltime="36.03" density="0.58" laneDensity="0.58" occupancy="0.28" waitingTime="1.00" timeLoss="45.73" speed="4.90" speedRelative="0.88" departed="1" arrived="0" entered="9" left="10" laneChangedFrom="0" laneChangedTo="0"/>
        <edge id="-1083809476#0" sampledSeconds="2490.79" traveltime="186.60" overlapTraveltime="280.43" density="133.33" laneDensity="133.33" occupancy="62.02" waitingTime="2462.00" timeLoss="2486.90" speed="0.02" speedRelative="0.00" departed="1" arrived="0" entered="14" left="14" laneChangedFrom="0" laneChangedTo="0" teleported="6"/>
        <edge id="-1083809476#1" sampledSeconds="3363.53" traveltime="82.60" overlapTraveltime="337.22" density="132.34" laneDensity="132.34" occupancy="37.86" waitingTime="3303.00" timeLoss="3351.06" speed="0.04" speedRelative="0.00" departed="5" arrived="0" entered="10" left="14" laneChangedFrom="0" laneChangedTo="0"/>
        <edge id="-1083809476#2" sampledSeconds="2451.79" traveltime="126.78" overlapTraveltime="199.19" density="10.67" laneDensity="10.67" occupancy="4.81" waitingTime="2280.00" timeLoss="2352.80" speed="0.35" speedRelative="0.04" departed="10" arrived="0" entered="5" left="10" laneChangedFrom="0" laneChangedTo="0"/>
        <edge id="-1089556862" sampledSeconds="0.00" departed="0" arrived="0" entered="0" left="0" laneChangedFrom="0" laneChangedTo="0"/>
        <edge id="-1092037414" sampledSeconds="0.00" departed="0" arrived="0" entered="0" left="0" laneChangedFrom="0" laneChangedTo="0"/>
        <edge id="-1092277111#0" sampledSeconds="0.00" departed="0" arrived="0" entered="0" left="0" laneChangedFrom="0" laneChangedTo="0"/>
        <edge id="-1092277111#1" sampledSeconds="0.00" departed="0" arrived="0" entered="0" left="0" laneChangedFrom="0" laneChangedTo="0"/>
        <edge id="-1092277112" sampledSeconds="0.00" departed="0" arrived="0" entered="0" left="0" laneChangedFrom="0" laneChangedTo="0"/>
        <edge id="-1092277113" sampledSeconds="0.00" departed="0" arrived="0" entered="0" left="0" laneChangedFrom="0" laneChangedTo="0"/>
        <edge id="-1092277114#0" sampledSeconds="0.00" departed="0" arrived="0" entered="0" left="0" laneChangedFrom="0" laneChangedTo="0"/>
        <edge id="-1092277114#1" sampledSeconds="0.00" departed="0" arrived="0" entered="0" left="0" laneChangedFrom="0" laneChangedTo="0"/>
        <edge id="-1099375861" sampledSeconds="0.00" departed="0" arrived="0" entered="0" left="0" laneChangedFrom="0" laneChangedTo="0"/>
        <edge id="-1099375862" sampledSeconds="0.00" departed="0" arrived="0" entered="0" left="0" laneChangedFrom="0" laneChangedTo="0"/>
        <edge id="-1104041094" sampledSeconds="0.00" departed="0" arrived="0" entered="0" left="0" laneChangedFrom="0" laneChangedTo="0"/>
        <edge id="-1104477172" sampledSeconds="0.00" departed="0" arrived="0" entered="0" left="0" laneChangedFrom="0" laneChangedTo="0"/>
        <edge id="-1106583870" sampledSeconds="1647.36" traveltime="279.92" overlapTraveltime="285.71" density="5.10" laneDensity="5.10" occupancy="2.54" waitingTime="1547.00" timeLoss="1578.53" speed="0.33" speedRelative="0.04" departed="2" arrived="0" entered="4" left="5" laneChangedFrom="0" laneChangedTo="0" teleported="1"/>
        <edge id="-1109746214" sampledSeconds="0.00" departed="0" arrived="0" entered="0" left="0" laneChangedFrom="0" laneChangedTo="0"/>
        <edge id="-1109746215" sampledSeconds="0.00" departed="0" arrived="0" entered="0" left="0" laneChangedFrom="0" laneChangedTo="0"/>
        <edge id="-1112471208" sampledSeconds="0.00" departed="0" arrived="0" entered="0" left="0" laneChangedFrom="0" laneChangedTo="0"/>
        <edge id="-1127569560" sampledSeconds="0.00" departed="0" arrived="0" entered="0" left="0" laneChangedFrom="0" laneChangedTo="0"/>
        <edge id="-1143919180" sampledSeconds="0.00" departed="0" arrived="0" entered="0" left="0" laneChangedFrom="0" laneChangedTo="0"/>
        <edge id="-1143919181" sampledSeconds="0.00" departed="0" arrived="0" entered="0" left="0" laneChangedFrom="0" laneChangedTo="0"/>
        <edge id="-1143919182" sampledSeconds="0.00" departed="0" arrived="0" entered="0" left="0" laneChangedFrom="0" laneChangedTo="0"/>
        <edge id="-1153265597#0" sampledSeconds="111.41" traveltime="2.32" overlapTraveltime="3.89" density="2.23" laneDensity="0.74" occupancy="0.26" waitingTime="0.00" timeLoss="29.88" speed="4.85" speedRelative="0.58" departed="0" arrived="6" entered="29" left="24" laneChangedFrom="5" laneChangedTo="5"/>
        <edge id="-1153265597#1" sampledSeconds="45.02" traveltime="0.95" overlapTraveltime="1.63" density="1.86" laneDensity="0.62" occupancy="0.19" waitingTime="0.00" timeLoss="6.16" speed="7.17" speedRelative="0.86" departed="3" arrived="1" entered="27" left="29" laneChangedFrom="0" laneChangedTo="0"/>
        <edge id="-1153265597#2" sampledSeconds="69.29" traveltime="1.91" overlapTraveltime="2.57" density="1.33" laneDensity="0.44" occupancy="0.17" waitingTime="0.00" timeLoss="6.15" speed="7.57" speedRelative="0.91" departed="0" arrived="0" entered="27" left="27" laneChangedFrom="0" laneChangedTo="0"/>
        <edge id="-1156329248" sampledSeconds="3415.85" traveltime="513.03" overlapTraveltime="708.05" density="133.33" laneDensity="133.33" occupancy="47.31" waitingTime="3395.66" timeLoss="3412.81" speed="0.01" speedRelative="0.00" departed="4" arrived="0" entered="84" left="87" laneChangedFrom="0" laneChangedTo="0" teleported="9"/>
        <edge id="-1156329250" sampledSeconds="2.57" traveltime="0.19" overlapTraveltime="1.43" density="0.57" laneDensity="0.57" occupancy="0.06" waitingTime="0.00" timeLoss="1.17" speed="4.38" speedRelative="0.53" departed="1" arrived="0" entered="3" left="4" laneChangedFrom="0" laneChangedTo="0"/>
        <edge id="-1156337048" sampledSeconds="0.00" departed="0" arrived="0" entered="0" left="0" laneChangedFrom="0" laneChangedTo="0"/>
        <edge id="-1167764376" sampledSeconds="368.10" traveltime="45.96" overlapTraveltime="47.15" density="1.54" laneDensity="1.54" occupancy="0.76" waitingTime="283.00" timeLoss="303.30" speed="1.51" speedRelative="0.18" departed="2" arrived="1" entered="6" left="7" laneChangedFrom="0" laneChangedTo="0"/>
        <edge id="-1168195444#0" sampledSeconds="0.00" departed="0" arrived="0" entered="0" left="0" laneChangedFrom="0" laneChangedTo="0"/>
        <edge id="-1168195444#1" sampledSeconds="0.00" departed="0" arrived="0" entered="0" left="0" laneChangedFrom="0" laneChangedTo="0"/>
        <edge id="-1174838574" sampledSeconds="0.00" departed="0" arrived="0" entered="0" left="0" laneChangedFrom="0" laneChangedTo="0"/>
        <edge id="-1189500284" sampledSeconds="0.00" departed="0" arrived="0" entered="0" left="0" laneChangedFrom="0" laneChangedTo="0"/>
        <edge id="-119180342#0" sampledSeconds="919.89" traveltime="15.32" overlapTraveltime="23.53" density="37.36" laneDensity="18.68" occupancy="6.36" waitingTime="857.00" timeLoss="879.18" speed="0.50" speedRelative="0.04" departed="2" arrived="0" entered="38" left="40" laneChangedFrom="4" laneChangedTo="4"/>
        <edge id="-119180342#1" sampledSeconds="28.20" traveltime="0.26" overlapTraveltime="0.77" density="2.73" laneDensity="1.36" occupancy="0.26" waitingTime="0.00" timeLoss="7.14" speed="10.19" speedRelative="0.73" departed="2" arrived="0" entered="36" left="38" laneChangedFrom="0" laneChangedTo="0"/>
        <edge id="-1198622058" sampledSeconds="0.00" departed="0" arrived="0" entered="0" left="0" laneChangedFrom="0" laneChangedTo="0"/>
        <edge id="-1198622059" sampledSeconds="0.00" departed="0" arrived="0" entered="0" left="0" laneChangedFrom="0" laneChangedTo="0"/>
        <edge id="-121794822#0" sampledSeconds="353.79" traveltime="20.51" overlapTraveltime="22.82" density="2.18" laneDensity="2.18" occupancy="0.99" waitingTime="0.00" timeLoss="78.23" speed="2.19" speedRelative="0.79" departed="4" arrived="1" entered="12" left="15" laneChangedFrom="0" laneChangedTo="0"/>
        <edge id="-121794822#1" sampledSeconds="126.08" traveltime="7.63" overlapTraveltime="10.00" density="2.07" laneDensity="2.07" occupancy="0.81" waitingTime="0.00" timeLoss="29.48" speed="2.20" speedRelative="0.79" departed="1" arrived="1" entered="12" left="12" laneChangedFrom="0" laneChangedTo="0"/>
        <edge id="-121794822#3" sampledSeconds="3115.54" traveltime="91.82" overlapTraveltime="99.44" density="76.86" laneDensity="76.86" occupancy="30.86" waitingTime="2846.00" timeLoss="2924.97" speed="0.16" speedRelative="0.06" departed="1" arrived="1" entered="41" left="39" laneChangedFrom="0" laneChangedTo="0" teleported="5"/>
        <edge id="-121794822#5" sampledSeconds="2131.14" traveltime="96.83" overlapTraveltime="100.62" density="29.63" laneDensity="29.63" occupancy="14.46" waitingTime="1850.00" timeLoss="1935.57" speed="0.25" speedRelative="0.09" departed="2" arrived="0" entered="21" left="22" laneChangedFrom="0" laneChangedTo="0" teleported="1"/>
        <edge id="-121794822#6" sampledSeconds="56.76" traveltime="2.06" overlapTraveltime="4.37" density="3.74" laneDensity="3.74" occupancy="0.85" waitingTime="0.00" timeLoss="14.23" speed="2.11" speedRelative="0.76" departed="0" arrived="0" entered="13" left="13" laneChangedFrom="0" laneChangedTo="0"/>
        <edge id="-121794822#7" sampledSeconds="63.94" traveltime="3.05" overlapTraveltime="5.48" density="2.78" laneDensity="2.78" occupancy="0.80" waitingTime="0.00" timeLoss="16.59" speed="2.08" speedRelative="0.75" departed="3" arrived="0" entered="10" left="13" laneChangedFrom="0" laneChangedTo="0"/>
        <edge id="-121794822#8" sampledSeconds="66.35" traveltime="2.74" overlapTraveltime="5.23" density="3.07" laneDensity="3.07" occupancy="0.85" waitingTime="0.00" timeLoss="14.64" speed="2.10" speedRelative="0.76" departed="5" arrived="0" entered="10" left="15" laneChangedFrom="0" laneChangedTo="0"/>
        <edge id="-121794822#9" sampledSeconds="31.01" traveltime="1.20" overlapTraveltime="3.44" density="3.50" laneDensity="3.50" occupancy="0.60" waitingTime="0.00" timeLoss="6.51" speed="2.17" speedRelative="0.78" departed="3" arrived="0" entered="7" left="10" laneChangedFrom="0" laneChangedTo="0"/>
        <edge id="-121794824" sampledSeconds="2402.02" traveltime="196.35" overlapTraveltime="202.44" density="8.79" laneDensity="8.79" occupancy="4.37" waitingTime="1891.00" timeLoss="2030.97" speed="0.40" speedRelative="0.14" departed="13" arrived="0" entered="0" left="12" laneChangedFrom="0" laneChangedTo="0" teleported="4"/>
        <edge id="-121794825#0" sampledSeconds="1422.70" traveltime="60.70" overlapTraveltime="59.42" density="133.33" laneDensity="133.33" occupancy="20.29" waitingTime="1361.71" timeLoss="1378.44" speed="0.09" speedRelative="0.03" departed="3" arrived="0" entered="29" left="31" laneChangedFrom="0" laneChangedTo="0" teleported="4"/>
        <edge id="-121794825#1" sampledSeconds="1581.02" traveltime="77.70" overlapTraveltime="90.11" density="81.48" laneDensity="81.48" occupancy="39.76" waitingTime="1497.00" timeLoss="1516.21" speed="0.12" speedRelative="0.04" departed="0" arrived="0" entered="20" left="19" laneChangedFrom="0" laneChangedTo="0" teleported="4"/>
        <edge id="-121794825#2" sampledSeconds="1983.73" traveltime="83.94" overlapTraveltime="87.19" density="14.40" laneDensity="14.40" occupancy="7.02" waitingTime="1529.00" timeLoss="1638.52" speed="0.50" speedRelative="0.18" departed="1" arrived="1" entered="23" left="20" laneChangedFrom="0" laneChangedTo="0"/>
        <edge id="-121794825#3" sampledSeconds="17.65" overlapTraveltime="4.87" density="1.05" laneDensity="1.05" occupancy="0.28" waitingTime="0.00" timeLoss="5.35" speed="1.98" speedRelative="0.71" departed="7" arrived="0" entered="0" left="7" laneChangedFrom="0" laneChangedTo="0"/>
        <edge id="-121794827" sampledSeconds="1670.44" traveltime="117.06" overlapTraveltime="120.58" density="7.19" laneDensity="7.19" occupancy="3.52" waitingTime="1189.00" timeLoss="1308.75" speed="0.58" speedRelative="0.21" departed="0" arrived="0" entered="14" left="14" laneChangedFrom="0" laneChangedTo="0" teleported="2"/>
        <edge id="-1230294701" sampledSeconds="12572.68" traveltime="628.12" overlapTraveltime="889.08" density="133.33" laneDensity="133.33" occupancy="60.13" waitingTime="12233.00" timeLoss="12494.69" speed="0.04" speedRelative="0.01" departed="0" arrived="0" entered="16" left="13" laneChangedFrom="0" laneChangedTo="0"/>
        <edge id="-1236138839" sampledSeconds="0.00" departed="0" arrived="0" entered="0" left="0" laneChangedFrom="0" laneChangedTo="0"/>
        <edge id="-1236138840" sampledSeconds="0.00" departed="0" arrived="0" entered="0" left="0" laneChangedFrom="0" laneChangedTo="0"/>
        <edge id="-1236138841" sampledSeconds="0.00" departed="0" arrived="0" entered="0" left="0" laneChangedFrom="0" laneChangedTo="0"/>
        <edge id="-1236138842" sampledSeconds="0.00" departed="0" arrived="0" entered="0" left="0" laneChangedFrom="0" laneChangedTo="0"/>
        <edge id="-1236138843" sampledSeconds="0.00" departed="0" arrived="0" entered="0" left="0" laneChangedFrom="0" laneChangedTo="0"/>
        <edge id="-1236456853#0" sampledSeconds="0.00" departed="0" arrived="0" entered="0" left="0" laneChangedFrom="0" laneChangedTo="0"/>
        <edge id="-1236456853#1" sampledSeconds="0.00" departed="0" arrived="0" entered="0" left="0" laneChangedFrom="0" laneChangedTo="0"/>
        <edge id="-1236456856" sampledSeconds="0.00" departed="0" arrived="0" entered="0" left="0" laneChangedFrom="0" laneChangedTo="0"/>
        <edge id="-1238081827" sampledSeconds="0.00" departed="0" arrived="0" entered="0" left="0" laneChangedFrom="0" laneChangedTo="0"/>
        <edge id="-1238081828#0" sampledSeconds="0.00" departed="0" arrived="0" entered="0" left="0" laneChangedFrom="0" laneChangedTo="0"/>
        <edge id="-1238081828#1" sampledSeconds="0.00" departed="0" arrived="0" entered="0" left="0" laneChangedFrom="0" laneChangedTo="0"/>
        <edge id="-1239207125" sampledSeconds="0.00" departed="0" arrived="0" entered="0" left="0" laneChangedFrom="0" laneChangedTo="0"/>
        <edge id="-1239207126" sampledSeconds="0.00" departed="0" arrived="0" entered="0" left="0" laneChangedFrom="0" laneChangedTo="0"/>
        <edge id="-1239207127#0" sampledSeconds="0.00" departed="0" arrived="0" entered="0" left="0" laneChangedFrom="0" laneChangedTo="0"/>
        <edge id="-1239207127#1" sampledSeconds="0.00" departed="0" arrived="0" entered="0" left="0" laneChangedFrom="0" laneChangedTo="0"/>
        <edge id="-1239219870" sampledSeconds="0.00" departed="0" arrived="0" entered="0" left="0" laneChangedFrom="0" laneChangedTo="0"/>
        <edge id="-1239219871" sampledSeconds="0.00" departed="0" arrived="0" entered="0" left="0" laneChangedFrom="0" laneChangedTo="0"/>
        <edge id="-1239219872#0" sampledSeconds="0.00" departed="0" arrived="0" entered="0" left="0" laneChangedFrom="0" laneChangedTo="0"/>
        <edge id="-1239219872#1" sampledSeconds="0.00" departed="0" arrived="0" entered="0" left="0" laneChangedFrom="0" laneChangedTo="0"/>
        <edge id="-1245256709" sampledSeconds="0.00" departed="0" arrived="0" entered="0" left="0" laneChangedFrom="0" laneChangedTo="0"/>
        <edge id="-1245258622" sampledSeconds="0.00" departed="0" arrived="0" entered="0" left="0" laneChangedFrom="0" laneChangedTo="0"/>
        <edge id="-1254957909" sampledSeconds="0.00" departed="0" arrived="0" entered="0" left="0" laneChangedFrom="0" laneChangedTo="0"/>
        <edge id="-1263793722#0" sampledSeconds="32.76" traveltime="2.15" overlapTraveltime="3.76" density="0.92" laneDensity="0.92" occupancy="0.30" waitingTime="0.00" timeLoss="12.28" speed="3.96" speedRelative="0.48" departed="0" arrived="1" entered="9" left="8" laneChangedFrom="0" laneChangedTo="0"/>
        <edge id="-1263793722#1" sampledSeconds="12.29" traveltime="0.27" overlapTraveltime="1.27" density="1.72" laneDensity="1.72" occupancy="0.26" waitingTime="0.00" timeLoss="3.97" speed="5.49" speedRelative="0.66" departed="3" arrived="2" entered="8" left="9" laneChangedFrom="0" laneChangedTo="0"/>
        <edge id="-1263793722#2" sampledSeconds="159.54" traveltime="19.73" overlapTraveltime="20.41" density="0.32" laneDensity="0.32" occupancy="0.15" waitingTime="0.00" timeLoss="18.74" speed="7.12" speedRelative="0.86" departed="5" arrived="0" entered="3" left="8" laneChangedFrom="0" laneChangedTo="0"/>
        <edge id="-1263793723" sampledSeconds="1542.10" traveltime="96.99" overlapTraveltime="246.24" density="13.85" laneDensity="13.85" occupancy="5.82" waitingTime="1491.00" timeLoss="1511.24" speed="0.15" speedRelative="0.02" departed="2" arrived="1" entered="5" left="6" laneChangedFrom="0" laneChangedTo="0"/>
        <edge id="-1267194155#0" sampledSeconds="645.39" traveltime="34.55" overlapTraveltime="36.32" density="6.03" laneDensity="6.03" occupancy="2.94" waitingTime="532.00" timeLoss="565.97" speed="0.96" speedRelative="0.11" departed="4" arrived="1" entered="15" left="16" laneChangedFrom="0" laneChangedTo="0"/>
        <edge id="-1267194155#1" sampledSeconds="24.35" traveltime="1.31" overlapTraveltime="2.01" density="0.93" laneDensity="0.93" occupancy="0.29" waitingTime="0.00" timeLoss="6.87" speed="6.11" speedRelative="0.73" departed="2" arrived="0" entered="13" left="15" laneChangedFrom="0" laneChangedTo="0"/>
        <edge id="-1267194155#2" sampledSeconds="8.37" traveltime="0.14" overlapTraveltime="1.09" density="2.13" laneDensity="2.13" occupancy="0.20" waitingTime="0.00" timeLoss="2.80" speed="5.56" speedRelative="0.67" departed="2" arrived="0" entered="11" left="13" laneChangedFrom="0" laneChangedTo="0"/>
        <edge id="-1298817713" sampledSeconds="22.88" traveltime="1.82" overlapTraveltime="2.84" density="0.78" laneDensity="0.78" occupancy="0.28" waitingTime="0.00" timeLoss="6.98" speed="4.63" speedRelative="0.56" departed="5" arrived="0" entered="5" left="10" laneChangedFrom="0" laneChangedTo="0"/>
        <edge id="-1298817714" sampledSeconds="22.45" traveltime="4.34" overlapTraveltime="5.01" density="0.26" laneDensity="0.26" occupancy="0.11" waitingTime="0.00" timeLoss="6.15" speed="5.84" speedRelative="0.70" departed="3" arrived="0" entered="2" left="5" laneChangedFrom="0" laneChangedTo="0"/>
        <edge id="-1305384085" sampledSeconds="0.00" departed="0" arrived="0" entered="0" left="0" laneChangedFrom="0" laneChangedTo="0"/>
        <edge id="-1305384086" sampledSeconds="0.00" departed="0" arrived="0" entered="0" left="0" laneChangedFrom="0" laneChangedTo="0"/>
        <edge id="-1305384087" sampledSeconds="0.00" departed="0" arrived="0" entered="0" left="0" laneChangedFrom="0" laneChangedTo="0"/>
        <edge id="-1305393686" sampledSeconds="0.00" departed="0" arrived="0" entered="0" left="0" laneChangedFrom="0" laneChangedTo="0"/>
        <edge id="-1305393687" sampledSeconds="0.00" departed="0" arrived="0" entered="0" left="0" laneChangedFrom="0" laneChangedTo="0"/>
        <edge id="-1305393688" sampledSeconds="0.00" departed="0" arrived="0" entered="0" left="0" laneChangedFrom="0" laneChangedTo="0"/>
        <edge id="-1307684786#0" sampledSeconds="727.18" traveltime="21.72" overlapTraveltime="22.75" density="133.33" laneDensity="133.33" occupancy="10.69" waitingTime="686.53" timeLoss="701.81" speed="0.23" speedRelative="0.03" departed="2" arrived="1" entered="33" left="33" laneChangedFrom="0" laneChangedTo="0" teleported="1"/>
        <edge id="-1307684786#1" sampledSeconds="3598.42" traveltime="84.11" overlapTraveltime="105.84" density="19.90" laneDensity="19.90" occupancy="9.79" waitingTime="3172.00" timeLoss="3365.43" speed="0.52" speedRelative="0.06" departed="1" arrived="0" entered="38" left="33" laneChangedFrom="0" laneChangedTo="0"/>
        <edge id="-131916344" sampledSeconds="0.00" departed="0" arrived="0" entered="0" left="0" laneChangedFrom="0" laneChangedTo="0"/>
        <edge id="-131916348#0" sampledSeconds="0.00" departed="0" arrived="0" entered="0" left="0" laneChangedFrom="0" laneChangedTo="0"/>
        <edge id="-131916348#1" sampledSeconds="0.00" departed="0" arrived="0" entered="0" left="0" laneChangedFrom="0" laneChangedTo="0"/>
        <edge id="-131916348#2" sampledSeconds="0.00" departed="0" arrived="0" entered="0" left="0" laneChangedFrom="0" laneChangedTo="0"/>
        <edge id="-131916348#3" sampledSeconds="0.00" departed="0" arrived="0" entered="0" left="0" laneChangedFrom="0" laneChangedTo="0"/>
        <edge id="-131954303" sampledSeconds="0.00" departed="0" arrived="0" entered="0" left="0" laneChangedFrom="0" laneChangedTo="0"/>
        <edge id="-132043932" sampledSeconds="0.00" departed="0" arrived="0" entered="0" left="0" laneChangedFrom="0" laneChangedTo="0"/>
        <edge id="-132043933" sampledSeconds="0.00" departed="0" arrived="0" entered="0" left="0" laneChangedFrom="0" laneChangedTo="0"/>
        <edge id="-132043934#0" sampledSeconds="0.00" departed="0" arrived="0" entered="0" left="0" laneChangedFrom="0" laneChangedTo="0"/>
        <edge id="-132043934#1" sampledSeconds="0.00" departed="0" arrived="0" entered="0" left="0" laneChangedFrom="0" laneChangedTo="0"/>
        <edge id="-132148870#0" sampledSeconds="71.51" traveltime="0.63" overlapTraveltime="1.35" density="4.45" laneDensity="4.45" occupancy="1.06" waitingTime="0.00" timeLoss="10.02" speed="7.02" speedRelative="0.84" departed="2" arrived="0" entered="52" left="54" laneChangedFrom="0" laneChangedTo="0"/>
        <edge id="-132148870#1" sampledSeconds="39.95" traveltime="0.03" overlapTraveltime="0.74" density="55.49" laneDensity="55.49" occupancy="1.07" waitingTime="0.00" timeLoss="5.54" speed="7.02" speedRelative="0.84" departed="2" arrived="2" entered="52" left="52" laneChangedFrom="0" laneChangedTo="0"/>
        <edge id="-132148870#2" sampledSeconds="227.90" traveltime="2.39" overlapTraveltime="3.14" density="3.87" laneDensity="3.87" occupancy="1.49" waitingTime="0.00" timeLoss="34.13" speed="6.79" speedRelative="0.82" departed="2" arrived="0" entered="71" left="73" laneChangedFrom="0" laneChangedTo="0"/>
        <edge id="-132148870#3" sampledSeconds="291.97" traveltime="3.30" overlapTraveltime="4.14" density="29.60" laneDensity="29.60" occupancy="6.95" waitingTime="194.00" timeLoss="220.97" speed="1.87" speedRelative="0.22" departed="1" arrived="0" entered="70" left="71" laneChangedFrom="0" laneChangedTo="0"/>
        <edge id="-132148870#4" sampledSeconds="322.38" traveltime="0.89" overlapTraveltime="4.57" density="17.12" laneDensity="17.12" occupancy="3.92" waitingTime="194.00" timeLoss="231.12" speed="2.24" speedRelative="0.27" departed="2" arrived="2" entered="70" left="70" laneChangedFrom="0" laneChangedTo="0"/>
        <edge id="-132376876" sampledSeconds="0.00" departed="0" arrived="0" entered="0" left="0" laneChangedFrom="0" laneChangedTo="0"/>
        <edge id="-132376877" sampledSeconds="0.00" departed="0" arrived="0" entered="0" left="0" laneChangedFrom="0" laneChangedTo="0"/>
        <edge id="-132453746" sampledSeconds="0.00" departed="0" arrived="0" entered="0" left="0" laneChangedFrom="0" laneChangedTo="0"/>
        <edge id="-132453750#0" sampledSeconds="0.00" departed="0" arrived="0" entered="0" left="0" laneChangedFrom="0" laneChangedTo="0"/>
        <edge id="-132453750#1" sampledSeconds="0.00" departed="0" arrived="0" entered="0" left="0" laneChangedFrom="0" laneChangedTo="0"/>
        <edge id="-132453751" sampledSeconds="0.00" departed="0" arrived="0" entered="0" left="0" laneChangedFrom="0" laneChangedTo="0"/>
        <edge id="-132453755" sampledSeconds="0.00" departed="0" arrived="0" entered="0" left="0" laneChangedFrom="0" laneChangedTo="0"/>
        <edge id="-132453762" sampledSeconds="0.00" departed="0" arrived="0" entered="0" left="0" laneChangedFrom="0" laneChangedTo="0"/>
        <edge id="-132928975" sampledSeconds="0.00" departed="0" arrived="0" entered="0" left="0" laneChangedFrom="0" laneChangedTo="0"/>
        <edge id="-132928976" sampledSeconds="0.00" departed="0" arrived="0" entered="0" left="0" laneChangedFrom="0" laneChangedTo="0"/>