<?xml version="1.0" encoding="UTF-8"?>

<!-- generated on 2025-01-24 15:18:38 by Eclipse SUMO sumo Version 1.20.0
<configuration xmlns:xsi="http://www.w3.org/2001/XMLSchema-instance" xsi:noNamespaceSchemaLocation="http://sumo.dlr.de/xsd/sumoConfiguration.xsd">

    <input>
        <net-file value="/Users/dguastel/TULIPE_SCENARIO_OSM/tulipe_highways/tulipe_highways.rev.net.xml"/>
        <route-files value="output/0b68d8dd-3ff7-4363-9a3e-98d5fb5b4b89/routes.xml"/>
        <additional-files value="output/0b68d8dd-3ff7-4363-9a3e-98d5fb5b4b89/edgedata.add.xml,output/0b68d8dd-3ff7-4363-9a3e-98d5fb5b4b89/rerouter.add.xml"/>
    </input>

    <output>
        <summary-output value="output/0b68d8dd-3ff7-4363-9a3e-98d5fb5b4b89/summary.out.xml"/>
        <tripinfo-output value="output/0b68d8dd-3ff7-4363-9a3e-98d5fb5b4b89/tripinfo.withRoadworks.out.xml"/>
        <tripinfo-output.write-unfinished value="true"/>
    </output>

    <time>
        <begin value="0"/>
        <end value="7200"/>
    </time>

    <processing>
        <ignore-route-errors value="true"/>
        <random-depart-offset value="60.0"/>
    </processing>

    <random_number>
        <random value="true"/>
    </random_number>

</configuration>
-->

<meandata xmlns:xsi="http://www.w3.org/2001/XMLSchema-instance" xsi:noNamespaceSchemaLocation="http://sumo.dlr.de/xsd/meandata_file.xsd">
    <interval begin="0.00" end="3600.00" id="0_to_3600">
        <edge id="-1000933268" sampledSeconds="0.00" departed="0" arrived="0" entered="0" left="0" laneChangedFrom="0" laneChangedTo="0"/>
        <edge id="-1006106056#0" sampledSeconds="0.00" departed="0" arrived="0" entered="0" left="0" laneChangedFrom="0" laneChangedTo="0"/>
        <edge id="-1006106056#1" sampledSeconds="0.00" departed="0" arrived="0" entered="0" left="0" laneChangedFrom="0" laneChangedTo="0"/>
        <edge id="-1024105863" sampledSeconds="108.49" traveltime="3.71" overlapTraveltime="4.46" density="1.15" laneDensity="1.15" occupancy="0.49" waitingTime="0.00" timeLoss="17.49" speed="6.98" speedRelative="0.84" departed="3" arrived="1" entered="22" left="23" laneChangedFrom="0" laneChangedTo="0"/>
        <edge id="-1037986847" sampledSeconds="299.78" traveltime="18.85" overlapTraveltime="18.56" density="266.67" laneDensity="133.33" occupancy="2.96" waitingTime="270.92" timeLoss="288.52" speed="0.28" speedRelative="0.03" departed="2" arrived="1" entered="15" left="16" laneChangedFrom="1" laneChangedTo="1"/>
        <edge id="-1041085657#0" sampledSeconds="1793.32" traveltime="31.57" overlapTraveltime="32.62" density="62.04" laneDensity="62.04" occupancy="21.31" waitingTime="1678.00" timeLoss="1707.52" speed="0.40" speedRelative="0.05" departed="2" arrived="0" entered="55" left="57" laneChangedFrom="0" laneChangedTo="0" teleported="3"/>
        <edge id="-1041085657#1" sampledSeconds="2104.93" traveltime="27.19" overlapTraveltime="38.15" density="42.74" laneDensity="42.74" occupancy="20.33" waitingTime="1928.00" timeLoss="1982.65" speed="0.49" speedRelative="0.06" departed="3" arrived="1" entered="53" left="55" laneChangedFrom="0" laneChangedTo="0"/>
        <edge id="-1056901981#0" sampledSeconds="0.00" departed="0" arrived="0" entered="0" left="0" laneChangedFrom="0" laneChangedTo="0"/>
        <edge id="-1056901981#1" sampledSeconds="0.00" departed="0" arrived="0" entered="0" left="0" laneChangedFrom="0" laneChangedTo="0"/>
        <edge id="-1058267556#0" sampledSeconds="0.00" departed="0" arrived="0" entered="0" left="0" laneChangedFrom="0" laneChangedTo="0"/>
        <edge id="-1058267556#1" sampledSeconds="0.00" departed="0" arrived="0" entered="0" left="0" laneChangedFrom="0" laneChangedTo="0"/>
        <edge id="-1058268367" sampledSeconds="0.00" departed="0" arrived="0" entered="0" left="0" laneChangedFrom="0" laneChangedTo="0"/>
        <edge id="-1059828488" sampledSeconds="0.00" departed="0" arrived="0" entered="0" left="0" laneChangedFrom="0" laneChangedTo="0"/>
        <edge id="-1059828489" sampledSeconds="0.00" departed="0" arrived="0" entered="0" left="0" laneChangedFrom="0" laneChangedTo="0"/>
        <edge id="-1059828490" sampledSeconds="0.00" departed="0" arrived="0" entered="0" left="0" laneChangedFrom="0" laneChangedTo="0"/>
        <edge id="-1066438511#0" sampledSeconds="89.61" traveltime="1.27" overlapTraveltime="2.15" density="3.29" laneDensity="3.29" occupancy="1.04" waitingTime="1.00" timeLoss="19.70" speed="5.83" speedRelative="0.70" departed="1" arrived="0" entered="41" left="42" laneChangedFrom="0" laneChangedTo="0"/>
        <edge id="-1066438511#1" sampledSeconds="351.83" traveltime="7.52" overlapTraveltime="8.25" density="1.79" laneDensity="1.79" occupancy="0.82" waitingTime="0.00" timeLoss="35.92" speed="7.23" speedRelative="0.87" departed="3" arrived="2" entered="40" left="41" laneChangedFrom="0" laneChangedTo="0"/>
        <edge id="-1066478854#0" sampledSeconds="375.27" traveltime="5.50" overlapTraveltime="6.16" density="2.55" laneDensity="2.55" occupancy="1.13" waitingTime="0.00" timeLoss="35.63" speed="7.44" speedRelative="0.89" departed="1" arrived="0" entered="60" left="61" laneChangedFrom="0" laneChangedTo="0"/>
        <edge id="-1066478854#1" sampledSeconds="107.22" traveltime="1.07" overlapTraveltime="1.80" density="4.65" laneDensity="4.65" occupancy="1.31" waitingTime="0.00" timeLoss="24.42" speed="6.35" speedRelative="0.76" departed="3" arrived="1" entered="58" left="60" laneChangedFrom="0" laneChangedTo="0"/>
        <edge id="-1080960154#0" sampledSeconds="32.66" traveltime="1.20" overlapTraveltime="2.62" density="2.34" laneDensity="2.34" occupancy="0.57" waitingTime="2.00" timeLoss="9.45" speed="3.38" speedRelative="0.61" departed="1" arrived="1" entered="12" left="12" laneChangedFrom="0" laneChangedTo="0"/>
        <edge id="-1080960154#1" sampledSeconds="553.15" traveltime="38.28" overlapTraveltime="39.74" density="0.90" laneDensity="0.90" occupancy="0.43" waitingTime="2.00" timeLoss="79.33" speed="4.44" speedRelative="0.80" departed="1" arrived="2" entered="13" left="12" laneChangedFrom="0" laneChangedTo="0"/>
        <edge id="-1083809476#0" sampledSeconds="23.69" traveltime="0.25" overlapTraveltime="1.12" density="6.58" laneDensity="6.58" occupancy="0.56" waitingTime="1.00" timeLoss="13.86" speed="5.35" speedRelative="0.64" departed="2" arrived="6" entered="21" left="17" laneChangedFrom="0" laneChangedTo="0"/>
        <edge id="-1083809476#1" sampledSeconds="43.89" traveltime="1.10" overlapTraveltime="1.96" density="1.73" laneDensity="1.73" occupancy="0.53" waitingTime="1.00" timeLoss="16.19" speed="6.14" speedRelative="0.74" departed="0" arrived="2" entered="23" left="21" laneChangedFrom="0" laneChangedTo="0"/>
        <edge id="-1083809476#2" sampledSeconds="224.65" traveltime="9.28" overlapTraveltime="10.03" density="0.98" laneDensity="0.98" occupancy="0.45" waitingTime="0.00" timeLoss="41.93" speed="6.87" speedRelative="0.82" departed="8" arrived="0" entered="15" left="23" laneChangedFrom="0" laneChangedTo="0"/>
        <edge id="-1089556862" sampledSeconds="0.00" departed="0" arrived="0" entered="0" left="0" laneChangedFrom="0" laneChangedTo="0"/>
        <edge id="-1092037414" sampledSeconds="0.00" departed="0" arrived="0" entered="0" left="0" laneChangedFrom="0" laneChangedTo="0"/>
        <edge id="-1092277111#0" sampledSeconds="0.00" departed="0" arrived="0" entered="0" left="0" laneChangedFrom="0" laneChangedTo="0"/>
        <edge id="-1092277111#1" sampledSeconds="0.00" departed="0" arrived="0" entered="0" left="0" laneChangedFrom="0" laneChangedTo="0"/>
        <edge id="-1092277112" sampledSeconds="0.00" departed="0" arrived="0" entered="0" left="0" laneChangedFrom="0" laneChangedTo="0"/>
        <edge id="-1092277113" sampledSeconds="0.00" departed="0" arrived="0" entered="0" left="0" laneChangedFrom="0" laneChangedTo="0"/>
        <edge id="-1092277114#0" sampledSeconds="0.00" departed="0" arrived="0" entered="0" left="0" laneChangedFrom="0" laneChangedTo="0"/>
        <edge id="-1092277114#1" sampledSeconds="0.00" departed="0" arrived="0" entered="0" left="0" laneChangedFrom="0" laneChangedTo="0"/>
        <edge id="-1099375861" sampledSeconds="0.00" departed="0" arrived="0" entered="0" left="0" laneChangedFrom="0" laneChangedTo="0"/>
        <edge id="-1099375862" sampledSeconds="0.00" departed="0" arrived="0" entered="0" left="0" laneChangedFrom="0" laneChangedTo="0"/>
        <edge id="-1104041094" sampledSeconds="0.00" departed="0" arrived="0" entered="0" left="0" laneChangedFrom="0" laneChangedTo="0"/>
        <edge id="-1104477172" sampledSeconds="0.00" departed="0" arrived="0" entered="0" left="0" laneChangedFrom="0" laneChangedTo="0"/>
        <edge id="-1106583870" sampledSeconds="699.86" traveltime="63.57" overlapTraveltime="64.87" density="2.17" laneDensity="2.17" occupancy="1.07" waitingTime="545.00" timeLoss="573.62" speed="1.46" speedRelative="0.18" departed="2" arrived="4" entered="9" left="7" laneChangedFrom="0" laneChangedTo="0" teleported="1"/>
        <edge id="-1109746214" sampledSeconds="0.00" departed="0" arrived="0" entered="0" left="0" laneChangedFrom="0" laneChangedTo="0"/>
        <edge id="-1109746215" sampledSeconds="0.00" departed="0" arrived="0" entered="0" left="0" laneChangedFrom="0" laneChangedTo="0"/>
        <edge id="-1112471208" sampledSeconds="0.00" departed="0" arrived="0" entered="0" left="0" laneChangedFrom="0" laneChangedTo="0"/>
        <edge id="-1127569560" sampledSeconds="0.00" departed="0" arrived="0" entered="0" left="0" laneChangedFrom="0" laneChangedTo="0"/>
        <edge id="-1143919180" sampledSeconds="0.00" departed="0" arrived="0" entered="0" left="0" laneChangedFrom="0" laneChangedTo="0"/>
        <edge id="-1143919181" sampledSeconds="0.00" departed="0" arrived="0" entered="0" left="0" laneChangedFrom="0" laneChangedTo="0"/>
        <edge id="-1143919182" sampledSeconds="0.00" departed="0" arrived="0" entered="0" left="0" laneChangedFrom="0" laneChangedTo="0"/>
        <edge id="-1153265597#0" sampledSeconds="144.99" traveltime="2.33" overlapTraveltime="3.83" density="2.91" laneDensity="0.97" occupancy="0.35" waitingTime="0.00" timeLoss="37.30" speed="4.93" speedRelative="0.59" departed="0" arrived="9" entered="39" left="29" laneChangedFrom="2" laneChangedTo="2"/>
        <edge id="-1153265597#1" sampledSeconds="64.80" traveltime="0.93" overlapTraveltime="1.61" density="2.68" laneDensity="0.89" occupancy="0.26" waitingTime="0.00" timeLoss="6.53" speed="7.25" speedRelative="0.87" departed="1" arrived="2" entered="40" left="39" laneChangedFrom="0" laneChangedTo="0"/>
        <edge id="-1153265597#2" sampledSeconds="109.72" traveltime="2.07" overlapTraveltime="2.75" density="2.11" laneDensity="0.70" occupancy="0.27" waitingTime="0.00" timeLoss="13.92" speed="7.08" speedRelative="0.85" departed="4" arrived="1" entered="37" left="40" laneChangedFrom="8" laneChangedTo="8"/>
        <edge id="-1156329248" sampledSeconds="2180.99" traveltime="20.63" overlapTraveltime="27.34" density="133.33" laneDensity="133.33" occupancy="40.09" waitingTime="2099.59" timeLoss="2128.88" speed="0.19" speedRelative="0.02" departed="4" arrived="1" entered="95" left="98" laneChangedFrom="0" laneChangedTo="0" teleported="4"/>
        <edge id="-1156329250" sampledSeconds="11.11" traveltime="0.17" overlapTraveltime="1.05" density="2.45" laneDensity="2.45" occupancy="0.26" waitingTime="0.00" timeLoss="3.25" speed="5.97" speedRelative="0.72" departed="2" arrived="0" entered="9" left="11" laneChangedFrom="0" laneChangedTo="0"/>
        <edge id="-1156337048" sampledSeconds="0.00" departed="0" arrived="0" entered="0" left="0" laneChangedFrom="0" laneChangedTo="0"/>
        <edge id="-1167764376" sampledSeconds="122.87" traveltime="9.39" overlapTraveltime="10.37" density="0.51" laneDensity="0.51" occupancy="0.24" waitingTime="0.00" timeLoss="18.89" speed="6.88" speedRelative="0.83" departed="2" arrived="1" entered="10" left="11" laneChangedFrom="0" laneChangedTo="0"/>
        <edge id="-1168195444#0" sampledSeconds="0.00" departed="0" arrived="0" entered="0" left="0" laneChangedFrom="0" laneChangedTo="0"/>
        <edge id="-1168195444#1" sampledSeconds="0.00" departed="0" arrived="0" entered="0" left="0" laneChangedFrom="0" laneChangedTo="0"/>
        <edge id="-1174838574" sampledSeconds="0.00" departed="0" arrived="0" entered="0" left="0" laneChangedFrom="0" laneChangedTo="0"/>
        <edge id="-1189500284" sampledSeconds="0.00" departed="0" arrived="0" entered="0" left="0" laneChangedFrom="0" laneChangedTo="0"/>
        <edge id="-119180342#0" sampledSeconds="116.23" traveltime="0.65" overlapTraveltime="1.13" density="4.72" laneDensity="2.36" occupancy="0.69" waitingTime="0.00" timeLoss="23.42" speed="10.46" speedRelative="0.75" departed="3" arrived="0" entered="101" left="104" laneChangedFrom="7" laneChangedTo="7"/>
        <edge id="-119180342#1" sampledSeconds="68.15" traveltime="0.24" overlapTraveltime="0.68" density="6.60" laneDensity="3.30" occupancy="0.62" waitingTime="0.00" timeLoss="11.99" speed="11.49" speedRelative="0.83" departed="3" arrived="1" entered="99" left="101" laneChangedFrom="0" laneChangedTo="0"/>
        <edge id="-1198622058" sampledSeconds="0.00" departed="0" arrived="0" entered="0" left="0" laneChangedFrom="0" laneChangedTo="0"/>
        <edge id="-1198622059" sampledSeconds="0.00" departed="0" arrived="0" entered="0" left="0" laneChangedFrom="0" laneChangedTo="0"/>
        <edge id="-121794822#0" sampledSeconds="426.04" traveltime="21.62" overlapTraveltime="24.08" density="2.63" laneDensity="2.63" occupancy="1.19" waitingTime="0.00" timeLoss="102.40" speed="2.08" speedRelative="0.75" departed="3" arrived="0" entered="15" left="18" laneChangedFrom="0" laneChangedTo="0"/>
        <edge id="-121794822#1" sampledSeconds="154.65" traveltime="8.06" overlapTraveltime="10.47" density="2.53" laneDensity="2.53" occupancy="0.98" waitingTime="0.00" timeLoss="36.38" speed="2.10" speedRelative="0.75" departed="1" arrived="0" entered="14" left="15" laneChangedFrom="0" laneChangedTo="0"/>
        <edge id="-121794822#3" sampledSeconds="300.06" traveltime="5.45" overlapTraveltime="8.08" density="7.40" laneDensity="7.40" occupancy="2.55" waitingTime="3.00" timeLoss="81.65" speed="2.01" speedRelative="0.72" departed="2" arrived="1" entered="36" left="37" laneChangedFrom="0" laneChangedTo="0"/>
        <edge id="-121794822#5" sampledSeconds="279.34" traveltime="9.40" overlapTraveltime="11.84" density="3.88" laneDensity="3.88" occupancy="1.55" waitingTime="0.00" timeLoss="62.88" speed="2.11" speedRelative="0.76" departed="2" arrived="0" entered="22" left="24" laneChangedFrom="0" laneChangedTo="0"/>
        <edge id="-121794822#6" sampledSeconds="56.04" traveltime="2.07" overlapTraveltime="4.41" density="3.69" laneDensity="3.69" occupancy="0.84" waitingTime="0.00" timeLoss="12.60" speed="2.09" speedRelative="0.75" departed="4" arrived="3" entered="12" left="13" laneChangedFrom="0" laneChangedTo="0"/>
        <edge id="-121794822#7" sampledSeconds="62.59" traveltime="3.00" overlapTraveltime="5.44" density="2.72" laneDensity="2.72" occupancy="0.78" waitingTime="0.00" timeLoss="13.74" speed="2.09" speedRelative="0.75" departed="1" arrived="0" entered="11" left="12" laneChangedFrom="0" laneChangedTo="0"/>
        <edge id="-121794822#8" sampledSeconds="39.76" traveltime="3.01" overlapTraveltime="5.62" density="1.84" laneDensity="1.84" occupancy="0.50" waitingTime="0.00" timeLoss="10.75" speed="1.96" speedRelative="0.70" departed="2" arrived="0" entered="6" left="8" laneChangedFrom="0" laneChangedTo="0"/>
        <edge id="-121794822#9" sampledSeconds="22.45" traveltime="1.12" overlapTraveltime="3.61" density="2.54" laneDensity="2.54" occupancy="0.43" waitingTime="0.00" timeLoss="5.24" speed="2.06" speedRelative="0.74" departed="1" arrived="1" entered="6" left="6" laneChangedFrom="0" laneChangedTo="0"/>
        <edge id="-121794824" sampledSeconds="360.83" traveltime="36.08" overlapTraveltime="38.51" density="1.32" laneDensity="1.32" occupancy="0.64" waitingTime="15.00" timeLoss="99.23" speed="2.10" speedRelative="0.76" departed="10" arrived="0" entered="0" left="10" laneChangedFrom="0" laneChangedTo="0"/>
        <edge id="-121794825#0" sampledSeconds="130.31" traveltime="0.78" overlapTraveltime="3.31" density="133.33" laneDensity="133.33" occupancy="3.13" waitingTime="29.00" timeLoss="55.83" speed="1.57" speedRelative="0.57" departed="1" arrived="1" entered="39" left="39" laneChangedFrom="0" laneChangedTo="0"/>
        <edge id="-121794825#1" sampledSeconds="181.09" traveltime="4.39" overlapTraveltime="6.94" density="9.33" laneDensity="9.33" occupancy="3.08" waitingTime="44.00" timeLoss="81.79" speed="1.50" speedRelative="0.54" departed="3" arrived="1" entered="25" left="27" laneChangedFrom="0" laneChangedTo="0"/>
        <edge id="-121794825#2" sampledSeconds="533.17" traveltime="18.55" overlapTraveltime="20.87" density="3.87" laneDensity="3.87" occupancy="1.73" waitingTime="0.00" timeLoss="127.60" speed="2.07" speedRelative="0.75" departed="3" arrived="1" entered="23" left="25" laneChangedFrom="0" laneChangedTo="0"/>
        <edge id="-121794825#3" sampledSeconds="24.63" overlapTraveltime="4.76" density="1.47" laneDensity="1.47" occupancy="0.37" waitingTime="0.00" timeLoss="6.28" speed="2.03" speedRelative="0.73" departed="10" arrived="0" entered="0" left="10" laneChangedFrom="0" laneChangedTo="0"/>
        <edge id="-121794827" sampledSeconds="377.48" traveltime="32.27" overlapTraveltime="35.02" density="1.62" laneDensity="1.62" occupancy="0.76" waitingTime="1.00" timeLoss="96.41" speed="1.99" speedRelative="0.71" departed="3" arrived="0" entered="8" left="11" laneChangedFrom="0" laneChangedTo="0"/>
        <edge id="-1230294701" sampledSeconds="247.73" traveltime="5.27" overlapTraveltime="9.23" density="2.63" laneDensity="2.63" occupancy="1.03" waitingTime="75.00" timeLoss="98.77" speed="3.37" speedRelative="0.61" departed="0" arrived="1" entered="27" left="26" laneChangedFrom="0" laneChangedTo="0"/>
        <edge id="-1236138839" sampledSeconds="0.00" departed="0" arrived="0" entered="0" left="0" laneChangedFrom="0" laneChangedTo="0"/>
        <edge id="-1236138840" sampledSeconds="0.00" departed="0" arrived="0" entered="0" left="0" laneChangedFrom="0" laneChangedTo="0"/>
        <edge id="-1236138841" sampledSeconds="0.00" departed="0" arrived="0" entered="0" left="0" laneChangedFrom="0" laneChangedTo="0"/>
        <edge id="-1236138842" sampledSeconds="0.00" departed="0" arrived="0" entered="0" left="0" laneChangedFrom="0" laneChangedTo="0"/>
        <edge id="-1236138843" sampledSeconds="0.00" departed="0" arrived="0" entered="0" left="0" laneChangedFrom="0" laneChangedTo="0"/>
        <edge id="-1236456853#0" sampledSeconds="0.00" departed="0" arrived="0" entered="0" left="0" laneChangedFrom="0" laneChangedTo="0"/>
        <edge id="-1236456853#1" sampledSeconds="0.00" departed="0" arrived="0" entered="0" left="0" laneChangedFrom="0" laneChangedTo="0"/>
        <edge id="-1236456856" sampledSeconds="0.00" departed="0" arrived="0" entered="0" left="0" laneChangedFrom="0" laneChangedTo="0"/>
        <edge id="-1238081827" sampledSeconds="0.00" departed="0" arrived="0" entered="0" left="0" laneChangedFrom="0" laneChangedTo="0"/>
        <edge id="-1238081828#0" sampledSeconds="0.00" departed="0" arrived="0" entered="0" left="0" laneChangedFrom="0" laneChangedTo="0"/>
        <edge id="-1238081828#1" sampledSeconds="0.00" departed="0" arrived="0" entered="0" left="0" laneChangedFrom="0" laneChangedTo="0"/>
        <edge id="-1239207125" sampledSeconds="0.00" departed="0" arrived="0" entered="0" left="0" laneChangedFrom="0" laneChangedTo="0"/>
        <edge id="-1239207126" sampledSeconds="0.00" departed="0" arrived="0" entered="0" left="0" laneChangedFrom="0" laneChangedTo="0"/>
        <edge id="-1239207127#0" sampledSeconds="0.00" departed="0" arrived="0" entered="0" left="0" laneChangedFrom="0" laneChangedTo="0"/>
        <edge id="-1239207127#1" sampledSeconds="0.00" departed="0" arrived="0" entered="0" left="0" laneChangedFrom="0" laneChangedTo="0"/>
        <edge id="-1239219870" sampledSeconds="0.00" departed="0" arrived="0" entered="0" left="0" laneChangedFrom="0" laneChangedTo="0"/>
        <edge id="-1239219871" sampledSeconds="0.00" departed="0" arrived="0" entered="0" left="0" laneChangedFrom="0" laneChangedTo="0"/>
        <edge id="-1239219872#0" sampledSeconds="0.00" departed="0" arrived="0" entered="0" left="0" laneChangedFrom="0" laneChangedTo="0"/>
        <edge id="-1239219872#1" sampledSeconds="0.00" departed="0" arrived="0" entered="0" left="0" laneChangedFrom="0" laneChangedTo="0"/>
        <edge id="-1245256709" sampledSeconds="0.00" departed="0" arrived="0" entered="0" left="0" laneChangedFrom="0" laneChangedTo="0"/>
        <edge id="-1245258622" sampledSeconds="0.00" departed="0" arrived="0" entered="0" left="0" laneChangedFrom="0" laneChangedTo="0"/>
        <edge id="-1254957909" sampledSeconds="0.00" departed="0" arrived="0" entered="0" left="0" laneChangedFrom="0" laneChangedTo="0"/>
        <edge id="-1263793722#0" sampledSeconds="35.54" traveltime="2.18" overlapTraveltime="3.64" density="1.00" laneDensity="1.00" occupancy="0.31" waitingTime="0.00" timeLoss="13.48" speed="4.09" speedRelative="0.49" departed="0" arrived="3" entered="10" left="7" laneChangedFrom="0" laneChangedTo="0"/>
        <edge id="-1263793722#1" sampledSeconds="15.05" traveltime="0.28" overlapTraveltime="1.52" density="2.10" laneDensity="2.10" occupancy="0.33" waitingTime="0.00" timeLoss="6.80" speed="4.58" speedRelative="0.55" departed="4" arrived="2" entered="8" left="10" laneChangedFrom="0" laneChangedTo="0"/>
        <edge id="-1263793722#2" sampledSeconds="166.30" traveltime="17.95" overlapTraveltime="18.66" density="0.33" laneDensity="0.33" occupancy="0.16" waitingTime="0.00" timeLoss="14.27" speed="7.79" speedRelative="0.94" departed="1" arrived="1" entered="8" left="8" laneChangedFrom="0" laneChangedTo="0"/>
        <edge id="-1263793723" sampledSeconds="45.55" traveltime="4.38" overlapTraveltime="5.23" density="0.41" laneDensity="0.41" occupancy="0.18" waitingTime="0.00" timeLoss="8.01" speed="6.87" speedRelative="0.83" departed="2" arrived="0" entered="7" left="9" laneChangedFrom="0" laneChangedTo="0"/>
        <edge id="-1267194155#0" sampledSeconds="174.86" traveltime="4.22" overlapTraveltime="5.19" density="1.63" laneDensity="1.63" occupancy="0.69" waitingTime="0.00" timeLoss="28.58" speed="6.69" speedRelative="0.80" departed="1" arrived="1" entered="33" left="33" laneChangedFrom="0" laneChangedTo="0"/>
        <edge id="-1267194155#1" sampledSeconds="58.48" traveltime="1.10" overlapTraveltime="1.79" density="2.24" laneDensity="2.24" occupancy="0.67" waitingTime="0.00" timeLoss="11.50" speed="6.87" speedRelative="0.82" departed="3" arrived="1" entered="31" left="33" laneChangedFrom="0" laneChangedTo="0"/>
        <edge id="-1267194155#2" sampledSeconds="27.78" traveltime="0.14" overlapTraveltime="0.88" density="7.08" laneDensity="7.08" occupancy="0.65" waitingTime="0.00" timeLoss="5.26" speed="6.93" speedRelative="0.83" departed="3" arrived="2" entered="30" left="31" laneChangedFrom="0" laneChangedTo="0"/>
        <edge id="-1298817713" sampledSeconds="22.35" traveltime="1.36" overlapTraveltime="2.48" density="0.76" laneDensity="0.76" occupancy="0.24" waitingTime="0.00" timeLoss="4.36" speed="5.29" speedRelative="0.64" departed="0" arrived="0" entered="9" left="9" laneChangedFrom="0" laneChangedTo="0"/>
        <edge id="-1298817714" sampledSeconds="39.56" traveltime="4.13" overlapTraveltime="4.87" density="0.45" laneDensity="0.45" occupancy="0.20" waitingTime="0.00" timeLoss="10.45" speed="6.02" speedRelative="0.72" departed="5" arrived="0" entered="4" left="9" laneChangedFrom="0" laneChangedTo="0"/>
        <edge id="-1305384085" sampledSeconds="0.00" departed="0" arrived="0" entered="0" left="0" laneChangedFrom="0" laneChangedTo="0"/>
        <edge id="-1305384086" sampledSeconds="0.00" departed="0" arrived="0" entered="0" left="0" laneChangedFrom="0" laneChangedTo="0"/>
        <edge id="-1305384087" sampledSeconds="0.00" departed="0" arrived="0" entered="0" left="0" laneChangedFrom="0" laneChangedTo="0"/>
        <edge id="-1305393686" sampledSeconds="0.00" departed="0" arrived="0" entered="0" left="0" laneChangedFrom="0" laneChangedTo="0"/>
        <edge id="-1305393687" sampledSeconds="0.00" departed="0" arrived="0" entered="0" left="0" laneChangedFrom="0" laneChangedTo="0"/>
        <edge id="-1305393688" sampledSeconds="0.00" departed="0" arrived="0" entered="0" left="0" laneChangedFrom="0" laneChangedTo="0"/>
        <edge id="-1307684786#0" sampledSeconds="68.59" traveltime="0.21" overlapTraveltime="1.24" density="95.27" laneDensity="95.27" occupancy="1.70" waitingTime="8.00" timeLoss="26.05" speed="4.20" speedRelative="0.50" departed="2" arrived="1" entered="54" left="55" laneChangedFrom="0" laneChangedTo="0"/>
        <edge id="-1307684786#1" sampledSeconds="466.50" traveltime="7.33" overlapTraveltime="8.52" density="2.58" laneDensity="2.58" occupancy="1.17" waitingTime="10.00" timeLoss="89.69" speed="6.49" speedRelative="0.78" departed="2" arrived="1" entered="53" left="54" laneChangedFrom="0" laneChangedTo="0"/>
        <edge id="-131916344" sampledSeconds="0.00" departed="0" arrived="0" entered="0" left="0" laneChangedFrom="0" laneChangedTo="0"/>
        <edge id="-131916348#0" sampledSeconds="0.00" departed="0" arrived="0" entered="0" left="0" laneChangedFrom="0" laneChangedTo="0"/>
        <edge id="-131916348#1" sampledSeconds="0.00" departed="0" arrived="0" entered="0" left="0" laneChangedFrom="0" laneChangedTo="0"/>
        <edge id="-131916348#2" sampledSeconds="0.00" departed="0" arrived="0" entered="0" left="0" laneChangedFrom="0" laneChangedTo="0"/>
        <edge id="-131916348#3" sampledSeconds="0.00" departed="0" arrived="0" entered="0" left="0" laneChangedFrom="0" laneChangedTo="0"/>
        <edge id="-131954303" sampledSeconds="0.00" departed="0" arrived="0" entered="0" left="0" laneChangedFrom="0" laneChangedTo="0"/>
        <edge id="-132043932" sampledSeconds="0.00" departed="0" arrived="0" entered="0" left="0" laneChangedFrom="0" laneChangedTo="0"/>
        <edge id="-132043933" sampledSeconds="0.00" departed="0" arrived="0" entered="0" left="0" laneChangedFrom="0" laneChangedTo="0"/>
        <edge id="-132043934#0" sampledSeconds="0.00" departed="0" arrived="0" entered="0" left="0" laneChangedFrom="0" laneChangedTo="0"/>
        <edge id="-132043934#1" sampledSeconds="0.00" departed="0" arrived="0" entered="0" left="0" laneChangedFrom="0" laneChangedTo="0"/>
        <edge id="-132148870#0" sampledSeconds="162.44" traveltime="0.63" overlapTraveltime="1.32" density="10.12" laneDensity="10.12" occupancy="2.39" waitingTime="0.00" timeLoss="20.42" speed="7.15" speedRelative="0.86" departed="1" arrived="3" entered="123" left="121" laneChangedFrom="0" laneChangedTo="0"/>
        <edge id="-132148870#1" sampledSeconds="91.89" traveltime="0.03" overlapTraveltime="0.74" density="127.62" laneDensity="127.62" occupancy="2.46" waitingTime="0.00" timeLoss="13.21" speed="7.01" speedRelative="0.84" departed="2" arrived="1" entered="122" left="123" laneChangedFrom="0" laneChangedTo="0"/>
        <edge id="-132148870#2" sampledSeconds="523.69" traveltime="2.33" overlapTraveltime="3.09" density="8.90" laneDensity="8.90" occupancy="3.41" waitingTime="0.00" timeLoss="67.56" speed="6.90" speedRelative="0.83" departed="2" arrived="2" entered="168" left="168" laneChangedFrom="0" laneChangedTo="0"/>
        <edge id="-132148870#3" sampledSeconds="219.14" traveltime="0.51" overlapTraveltime="1.31" density="22.22" laneDensity="22.22" occupancy="3.96" waitingTime="4.00" timeLoss="57.48" speed="5.92" speedRelative="0.71" departed="2" arrived="2" entered="167" left="167" laneChangedFrom="0" laneChangedTo="0"/>
        <edge id="-132148870#4" sampledSeconds="299.90" traveltime="0.92" overlapTraveltime="1.79" density="15.93" laneDensity="15.93" occupancy="4.21" waitingTime="4.00" timeLoss="88.92" speed="5.71" speedRelative="0.69" departed="1" arrived="1" entered="167" left="167" laneChangedFrom="0" laneChangedTo="0"/>
        <edge id="-132376876" sampledSeconds="0.00" departed="0" arrived="0" entered="0" left="0" laneChangedFrom="0" laneChangedTo="0"/>
        <edge id="-132376877" sampledSeconds="0.00" departed="0" arrived="0" entered="0" left="0" laneChangedFrom="0" laneChangedTo="0"/>
        <edge id="-132453746" sampledSeconds="0.00" departed="0" arrived="0" entered="0" left="0" laneChangedFrom="0" laneChangedTo="0"/>
        <edge id="-132453750#0" sampledSeconds="0.00" departed="0" arrived="0" entered="0" left="0" laneChangedFrom="0" laneChangedTo="0"/>
        <edge id="-132453750#1" sampledSeconds="0.00" departed="0" arrived="0" entered="0" left="0" laneChangedFrom="0" laneChangedTo="0"/>
        <edge id="-132453751" sampledSeconds="0.00" departed="0" arrived="0" entered="0" left="0" laneChangedFrom="0" laneChangedTo="0"/>
        <edge id="-132453755" sampledSeconds="0.00" departed="0" arrived="0" entered="0" left="0" laneChangedFrom="0" laneChangedTo="0"/>
        <edge id="-132453762" sampledSeconds="0.00" departed="0" arrived="0" entered="0" left="0" laneChangedFrom="0" laneChangedTo="0"/>
        <edge id="-132928975" sampledSeconds="0.00" departed="0" arrived="0" entered="0" left="0" laneChangedFrom="0" laneChangedTo="0"/>
        <edge id="-132928976" sampledSeconds="0.00" departed="0" arrived="0" entered="0" left="0" laneChangedFrom="0" laneChangedTo="0"/>
        <edge id="-13548482#0" sampledSeconds="0.00" departed="0" arrived="0" entered="0" left="0" laneChangedFrom="0" laneChangedTo="0"/>
        <edge id="-13548482#1" sampledSeconds="0.00" departed="0" arrived="0" entered="0" left="0" laneChangedFrom="0" laneChangedTo="0"/>