<?xml version="1.0" encoding="UTF-8"?>

<!-- generated on 2025-01-24 15:21:27 by Eclipse SUMO sumo Version 1.20.0
<configuration xmlns:xsi="http://www.w3.org/2001/XMLSchema-instance" xsi:noNamespaceSchemaLocation="http://sumo.dlr.de/xsd/sumoConfiguration.xsd">

    <input>
        <net-file value="/Users/dguastel/TULIPE_SCENARIO_OSM/tulipe_highways/tulipe_highways.rev.net.xml"/>
        <route-files value="output/0b68d8dd-3ff7-4363-9a3e-98d5fb5b4b89/routes.xml"/>
        <additional-files value="output/0b68d8dd-3ff7-4363-9a3e-98d5fb5b4b89/edgedata.no_roadworks.add.xml"/>
    </input>

    <output>
        <summary-output value="output/0b68d8dd-3ff7-4363-9a3e-98d5fb5b4b89/summary.out.xml"/>
        <tripinfo-output value="output/0b68d8dd-3ff7-4363-9a3e-98d5fb5b4b89/tripinfo.out.xml"/>
        <tripinfo-output.write-unfinished value="true"/>
    </output>

    <time>
        <begin value="0"/>
        <end value="7200"/>
    </time>

    <processing>
        <ignore-route-errors value="true"/>
        <random-depart-offset value="60.0"/>
    </processing>

    <random_number>
        <random value="true"/>
    </random_number>

</configuration>
-->

<tripinfos xmlns:xsi="http://www.w3.org/2001/XMLSchema-instance" xsi:noNamespaceSchemaLocation="http://sumo.dlr.de/xsd/tripinfo_file.xsd">
    <tripinfo id="21" depart="31.00" departLane="-803266531#2_0" departPos="4.08" departSpeed="0.00" departDelay="0.88" arrival="100.00" arrivalLane="1080960154#1_0" arrivalPos="171.64" arrivalSpeed="5.86" duration="69.00" routeLength="402.80" waitingTime="0.00" waitingCount="0" stopTime="0.00" timeLoss="8.69" rerouteNo="0" devices="tripinfo_21" vType="DEFAULT_VEHTYPE" speedFactor="1.17" vaporized=""/>
    <tripinfo id="116" depart="99.00" departLane="31512978#2_0" departPos="0.20" departSpeed="0.00" departDelay="0.48" arrival="101.00" arrivalLane="4392761#5_0" arrivalPos="0.20" arrivalSpeed="3.76" duration="2.00" routeLength="4.03" waitingTime="0.00" waitingCount="0" stopTime="0.00" timeLoss="1.40" rerouteNo="0" devices="tripinfo_116" vType="DEFAULT_VEHTYPE" speedFactor="1.14" vaporized=""/>
    <tripinfo id="1" depart="47.00" departLane="-95742119#1_0" departPos="3.64" departSpeed="0.00" departDelay="0.28" arrival="108.00" arrivalLane="-7682866#2_0" arrivalPos="24.28" arrivalSpeed="8.15" duration="61.00" routeLength="571.82" waitingTime="0.00" waitingCount="0" stopTime="0.00" timeLoss="7.74" rerouteNo="0" devices="tripinfo_1" vType="DEFAULT_VEHTYPE" speedFactor="1.07" vaporized=""/>
    <tripinfo id="92" depart="72.00" departLane="14858643#1_0" departPos="1.61" departSpeed="0.00" departDelay="0.76" arrival="115.00" arrivalLane="124862963#1_0" arrivalPos="2.14" arrivalSpeed="11.68" duration="43.00" routeLength="477.79" waitingTime="0.00" waitingCount="0" stopTime="0.00" timeLoss="4.91" rerouteNo="0" devices="tripinfo_92" vType="DEFAULT_VEHTYPE" speedFactor="0.91" vaporized=""/>
    <tripinfo id="66" depart="56.00" departLane="7682864#1_0" departPos="5.10" departSpeed="0.00" departDelay="0.48" arrival="122.00" arrivalLane="8382402#0_0" arrivalPos="4.38" arrivalSpeed="8.21" duration="66.00" routeLength="533.74" waitingTime="0.00" waitingCount="0" stopTime="0.00" timeLoss="8.37" rerouteNo="0" devices="tripinfo_66" vType="DEFAULT_VEHTYPE" speedFactor="1.13" vaporized=""/>
    <tripinfo id="48" depart="86.00" departLane="963479927#0_0" departPos="5.10" departSpeed="0.00" departDelay="0.44" arrival="126.00" arrivalLane="27807643#1_0" arrivalPos="4.57" arrivalSpeed="6.29" duration="40.00" routeLength="54.99" waitingTime="28.00" waitingCount="1" stopTime="0.00" timeLoss="34.24" rerouteNo="0" devices="tripinfo_48" vType="DEFAULT_VEHTYPE" speedFactor="0.85" vaporized=""/>
    <tripinfo id="0" depart="30.00" departLane="40151780#0_0" departPos="5.10" departSpeed="0.00" departDelay="0.00" arrival="136.00" arrivalLane="-1307684786#1_0" arrivalPos="50.24" arrivalSpeed="8.53" duration="106.00" routeLength="895.40" waitingTime="0.00" waitingCount="0" stopTime="0.00" timeLoss="12.63" rerouteNo="0" devices="tripinfo_0" vType="DEFAULT_VEHTYPE" speedFactor="1.17" vaporized=""/>
    <tripinfo id="70" depart="86.00" departLane="198077805#0_0" departPos="5.10" departSpeed="0.00" departDelay="0.60" arrival="157.00" arrivalLane="302657565#1_0" arrivalPos="213.58" arrivalSpeed="7.27" duration="71.00" routeLength="549.17" waitingTime="0.00" waitingCount="0" stopTime="0.00" timeLoss="8.88" rerouteNo="0" devices="tripinfo_70" vType="DEFAULT_VEHTYPE" speedFactor="0.93" vaporized=""/>
    <tripinfo id="47" depart="41.00" departLane="-17670100#4_0" departPos="1.73" departSpeed="0.00" departDelay="0.16" arrival="161.00" arrivalLane="13853659#0_0" arrivalPos="31.49" arrivalSpeed="4.85" duration="120.00" routeLength="811.36" waitingTime="0.00" waitingCount="0" stopTime="0.00" timeLoss="14.52" rerouteNo="0" devices="tripinfo_47" vType="DEFAULT_VEHTYPE" speedFactor="1.03" vaporized=""/>
    <tripinfo id="16" depart="49.00" departLane="27882429#0_0" departPos="5.10" departSpeed="0.00" departDelay="0.48" arrival="174.00" arrivalLane="8404828#2_0" arrivalPos="5.83" arrivalSpeed="8.84" duration="125.00" routeLength="991.73" waitingTime="2.00" waitingCount="1" stopTime="0.00" timeLoss="16.83" rerouteNo="0" devices="tripinfo_16" vType="DEFAULT_VEHTYPE" speedFactor="1.11" vaporized=""/>
    <tripinfo id="143" depart="153.00" departLane="643081314#1_0" departPos="0.20" departSpeed="0.00" departDelay="0.04" arrival="178.00" arrivalLane="-244422543#1_0" arrivalPos="124.72" arrivalSpeed="7.04" duration="25.00" routeLength="148.67" waitingTime="0.00" waitingCount="0" stopTime="0.00" timeLoss="3.23" rerouteNo="0" devices="tripinfo_143" vType="DEFAULT_VEHTYPE" speedFactor="0.85" vaporized=""/>
    <tripinfo id="41" depart="32.00" departLane="31431544#1_0" departPos="5.10" departSpeed="0.00" departDelay="0.48" arrival="180.00" arrivalLane="8140193#1_0" arrivalPos="88.39" arrivalSpeed="7.67" duration="148.00" routeLength="1090.42" waitingTime="0.00" waitingCount="0" stopTime="0.00" timeLoss="14.58" rerouteNo="0" devices="tripinfo_41" vType="DEFAULT_VEHTYPE" speedFactor="0.99" vaporized=""/>
    <tripinfo id="175" depart="149.00" departLane="897325985#0_0" departPos="5.10" departSpeed="0.00" departDelay="0.00" arrival="182.00" arrivalLane="29000804#0_0" arrivalPos="17.81" arrivalSpeed="7.80" duration="33.00" routeLength="334.12" waitingTime="0.00" waitingCount="0" stopTime="0.00" timeLoss="5.01" rerouteNo="0" devices="tripinfo_175" vType="DEFAULT_VEHTYPE" speedFactor="1.08" vaporized=""/>
    <tripinfo id="94" depart="125.00" departLane="-524150342_0" departPos="0.20" departSpeed="0.00" departDelay="0.32" arrival="192.00" arrivalLane="16233735#1_0" arrivalPos="6.07" arrivalSpeed="6.64" duration="67.00" routeLength="430.46" waitingTime="1.00" waitingCount="1" stopTime="0.00" timeLoss="8.78" rerouteNo="0" devices="tripinfo_94" vType="DEFAULT_VEHTYPE" speedFactor="0.91" vaporized=""/>
    <tripinfo id="203" depart="168.00" departLane="-236306864#3_0" departPos="5.10" departSpeed="0.00" departDelay="0.84" arrival="195.00" arrivalLane="236306864#3_0" arrivalPos="6.01" arrivalSpeed="8.89" duration="27.00" routeLength="198.43" waitingTime="0.00" waitingCount="0" stopTime="0.00" timeLoss="5.03" rerouteNo="0" devices="tripinfo_203" vType="DEFAULT_VEHTYPE" speedFactor="1.14" vaporized=""/>
    <tripinfo id="18" depart="51.00" departLane="628757206#1_0" departPos="5.10" departSpeed="0.00" departDelay="0.04" arrival="197.00" arrivalLane="377719664_0" arrivalPos="85.59" arrivalSpeed="7.35" duration="146.00" routeLength="1080.45" waitingTime="0.00" waitingCount="0" stopTime="0.00" timeLoss="13.95" rerouteNo="0" devices="tripinfo_18" vType="DEFAULT_VEHTYPE" speedFactor="0.99" vaporized=""/>
    <tripinfo id="45" depart="62.00" departLane="-31411680#2_0" departPos="0.20" departSpeed="0.00" departDelay="0.60" arrival="198.00" arrivalLane="399914534#1_0" arrivalPos="71.77" arrivalSpeed="6.88" duration="136.00" routeLength="932.24" waitingTime="0.00" waitingCount="0" stopTime="0.00" timeLoss="15.73" rerouteNo="0" devices="tripinfo_45" vType="DEFAULT_VEHTYPE" speedFactor="0.97" vaporized=""/>
    <tripinfo id="57" depart="75.00" departLane="8152060#1_0" departPos="5.10" departSpeed="0.00" departDelay="0.96" arrival="203.00" arrivalLane="720012594#2_0" arrivalPos="69.51" arrivalSpeed="7.70" duration="128.00" routeLength="927.29" waitingTime="4.00" waitingCount="1" stopTime="0.00" timeLoss="20.15" rerouteNo="0" devices="tripinfo_57" vType="DEFAULT_VEHTYPE" speedFactor="1.06" vaporized=""/>
    <tripinfo id="86" depart="68.00" departLane="183370113#4_0" departPos="5.10" departSpeed="0.00" departDelay="0.08" arrival="204.00" arrivalLane="5451844#1_0" arrivalPos="36.13" arrivalSpeed="8.02" duration="136.00" routeLength="815.98" waitingTime="37.00" waitingCount="2" stopTime="0.00" timeLoss="54.67" rerouteNo="0" devices="tripinfo_86" vType="DEFAULT_VEHTYPE" speedFactor="0.99" vaporized=""/>
    <tripinfo id="8" depart="58.00" departLane="-7682863#0_0" departPos="0.20" departSpeed="0.00" departDelay="0.24" arrival="206.00" arrivalLane="31449010#0_0" arrivalPos="24.81" arrivalSpeed="5.95" duration="148.00" routeLength="721.05" waitingTime="21.00" waitingCount="1" stopTime="0.00" timeLoss="36.41" rerouteNo="0" devices="tripinfo_8" vType="DEFAULT_VEHTYPE" speedFactor="0.78" vaporized=""/>
    <tripinfo id="26" depart="73.00" departLane="-8385415#2_0" departPos="5.10" departSpeed="0.00" departDelay="0.28" arrival="211.00" arrivalLane="8382347#4_0" arrivalPos="0.20" arrivalSpeed="9.36" duration="138.00" routeLength="1153.34" waitingTime="0.00" waitingCount="0" stopTime="0.00" timeLoss="14.28" rerouteNo="0" devices="tripinfo_26" vType="DEFAULT_VEHTYPE" speedFactor="1.14" vaporized=""/>
    <tripinfo id="157" depart="134.00" departLane="5450858#1_0" departPos="5.10" departSpeed="0.00" departDelay="0.96" arrival="211.00" arrivalLane="781742860#2_0" arrivalPos="35.12" arrivalSpeed="8.06" duration="77.00" routeLength="605.49" waitingTime="0.00" waitingCount="0" stopTime="0.00" timeLoss="9.05" rerouteNo="0" devices="tripinfo_157" vType="DEFAULT_VEHTYPE" speedFactor="1.09" vaporized=""/>
    <tripinfo id="39" depart="80.00" departLane="-8384930#0_0" departPos="0.20" departSpeed="0.00" departDelay="0.92" arrival="213.00" arrivalLane="-832629331#1_0" arrivalPos="8.84" arrivalSpeed="8.32" duration="133.00" routeLength="968.07" waitingTime="2.00" waitingCount="1" stopTime="0.00" timeLoss="24.68" rerouteNo="0" devices="tripinfo_39" vType="DEFAULT_VEHTYPE" speedFactor="1.09" vaporized=""/>
    <tripinfo id="24" depart="62.00" departLane="400961599#0_0" departPos="5.10" departSpeed="0.00" departDelay="0.72" arrival="218.00" arrivalLane="13430690#1_0" arrivalPos="14.62" arrivalSpeed="5.63" duration="156.00" routeLength="1151.71" waitingTime="5.00" waitingCount="2" stopTime="0.00" timeLoss="32.42" rerouteNo="0" devices="tripinfo_24" vType="DEFAULT_VEHTYPE" speedFactor="1.12" vaporized=""/>
    <tripinfo id="79" depart="105.00" departLane="-8140188#1_0" departPos="5.10" departSpeed="0.00" departDelay="0.12" arrival="219.00" arrivalLane="-70724346#2_0" arrivalPos="27.95" arrivalSpeed="7.46" duration="114.00" routeLength="781.07" waitingTime="3.00" waitingCount="1" stopTime="0.00" timeLoss="18.21" rerouteNo="0" devices="tripinfo_79" vType="DEFAULT_VEHTYPE" speedFactor="1.00" vaporized=""/>
    <tripinfo id="201" depart="151.00" departLane="198077804#0_0" departPos="5.10" departSpeed="0.00" departDelay="2.28" arrival="219.00" arrivalLane="8140198#1_0" arrivalPos="21.87" arrivalSpeed="7.39" duration="68.00" routeLength="523.57" waitingTime="0.00" waitingCount="0" stopTime="0.00" timeLoss="8.05" rerouteNo="0" devices="tripinfo_201" vType="DEFAULT_VEHTYPE" speedFactor="0.96" vaporized=""/>
    <tripinfo id="6" depart="14.00" departLane="-1307684786#0_0" departPos="0.20" departSpeed="0.00" departDelay="0.68" arrival="220.00" arrivalLane="-628755547#4_0" arrivalPos="60.32" arrivalSpeed="8.92" duration="206.00" routeLength="1575.93" waitingTime="16.00" waitingCount="2" stopTime="0.00" timeLoss="41.05" rerouteNo="0" devices="tripinfo_6" vType="DEFAULT_VEHTYPE" speedFactor="1.16" vaporized=""/>
    <tripinfo id="11" depart="51.00" departLane="1263954923_0" departPos="0.20" departSpeed="0.00" departDelay="0.08" arrival="222.00" arrivalLane="-4426076#0_0" arrivalPos="30.91" arrivalSpeed="8.61" duration="171.00" routeLength="1192.34" waitingTime="13.00" waitingCount="2" stopTime="0.00" timeLoss="37.31" rerouteNo="0" devices="tripinfo_11" vType="DEFAULT_VEHTYPE" speedFactor="1.05" vaporized=""/>
    <tripinfo id="38" depart="82.00" departLane="8250533#1_0" departPos="5.10" departSpeed="0.00" departDelay="0.64" arrival="223.00" arrivalLane="17670100#2_0" arrivalPos="52.49" arrivalSpeed="6.85" duration="141.00" routeLength="909.33" waitingTime="0.00" waitingCount="0" stopTime="0.00" timeLoss="14.50" rerouteNo="0" devices="tripinfo_38" vType="DEFAULT_VEHTYPE" speedFactor="0.87" vaporized=""/>
    <tripinfo id="120" depart="123.00" departLane="150275986#3_0" departPos="5.10" departSpeed="0.00" departDelay="0.60" arrival="226.00" arrivalLane="31431544#3_0" arrivalPos="43.92" arrivalSpeed="7.26" duration="103.00" routeLength="636.65" waitingTime="0.00" waitingCount="0" stopTime="0.00" timeLoss="12.78" rerouteNo="0" devices="tripinfo_120" vType="DEFAULT_VEHTYPE" speedFactor="0.87" vaporized=""/>
    <tripinfo id="63" depart="77.00" departLane="-121794825#3_0" departPos="4.66" departSpeed="0.00" departDelay="0.64" arrival="228.00" arrivalLane="8382302#0_0" arrivalPos="79.20" arrivalSpeed="7.77" duration="151.00" routeLength="710.34" waitingTime="0.00" waitingCount="0" stopTime="0.00" timeLoss="26.41" rerouteNo="0" devices="tripinfo_63" vType="DEFAULT_VEHTYPE" speedFactor="1.08" vaporized=""/>
    <tripinfo id="76" depart="82.00" departLane="159636083#0_0" departPos="5.10" departSpeed="0.00" departDelay="0.28" arrival="229.00" arrivalLane="239757874#0_0" arrivalPos="111.78" arrivalSpeed="7.66" duration="147.00" routeLength="1339.70" waitingTime="3.00" waitingCount="1" stopTime="0.00" timeLoss="18.93" rerouteNo="0" devices="tripinfo_76" vType="DEFAULT_VEHTYPE" speedFactor="1.05" vaporized=""/>
    <tripinfo id="13" depart="50.00" departLane="-265113917#1_0" departPos="5.10" departSpeed="0.00" departDelay="0.64" arrival="234.00" arrivalLane="-27882418#1_0" arrivalPos="25.28" arrivalSpeed="7.92" duration="184.00" routeLength="1279.66" waitingTime="1.00" waitingCount="1" stopTime="0.00" timeLoss="26.07" rerouteNo="0" devices="tripinfo_13" vType="DEFAULT_VEHTYPE" speedFactor="0.96" vaporized=""/>
    <tripinfo id="96" depart="119.00" departLane="-8382302#1_0" departPos="5.10" departSpeed="0.00" departDelay="0.88" arrival="237.00" arrivalLane="8382281#0_0" arrivalPos="195.61" arrivalSpeed="7.11" duration="118.00" routeLength="763.00" waitingTime="0.00" waitingCount="0" stopTime="0.00" timeLoss="14.82" rerouteNo="0" devices="tripinfo_96" vType="DEFAULT_VEHTYPE" speedFactor="0.90" vaporized=""/>
    <tripinfo id="130" depart="152.00" departLane="7682875_0" departPos="5.10" departSpeed="0.00" departDelay="0.40" arrival="237.00" arrivalLane="7682864#2_0" arrivalPos="79.59" arrivalSpeed="7.72" duration="85.00" routeLength="566.40" waitingTime="2.00" waitingCount="1" stopTime="0.00" timeLoss="12.14" rerouteNo="0" devices="tripinfo_130" vType="DEFAULT_VEHTYPE" speedFactor="0.94" vaporized=""/>
    <tripinfo id="29" depart="68.00" departLane="-4730648#4_0" departPos="3.80" departSpeed="0.00" departDelay="0.12" arrival="240.00" arrivalLane="13853655#1_0" arrivalPos="19.09" arrivalSpeed="6.19" duration="172.00" routeLength="985.76" waitingTime="1.00" waitingCount="1" stopTime="0.00" timeLoss="24.86" rerouteNo="0" devices="tripinfo_29" vType="DEFAULT_VEHTYPE" speedFactor="0.89" vaporized=""/>
    <tripinfo id="53" depart="65.00" departLane="-31428170#1_0" departPos="2.50" departSpeed="0.00" departDelay="0.84" arrival="243.00" arrivalLane="150276011#1_0" arrivalPos="152.21" arrivalSpeed="7.60" duration="178.00" routeLength="1356.19" waitingTime="0.00" waitingCount="0" stopTime="0.00" timeLoss="17.41" rerouteNo="0" devices="tripinfo_53" vType="DEFAULT_VEHTYPE" speedFactor="1.02" vaporized=""/>
    <tripinfo id="40" depart="70.00" departLane="307954762#1_0" departPos="5.10" departSpeed="0.00" departDelay="0.20" arrival="244.00" arrivalLane="-8382445#0_0" arrivalPos="2.72" arrivalSpeed="7.36" duration="174.00" routeLength="1185.56" waitingTime="0.00" waitingCount="0" stopTime="0.00" timeLoss="18.97" rerouteNo="0" devices="tripinfo_40" vType="DEFAULT_VEHTYPE" speedFactor="0.93" vaporized=""/>
    <tripinfo id="97" depart="73.00" departLane="16233735#0_0" departPos="5.10" departSpeed="0.00" departDelay="0.16" arrival="245.00" arrivalLane="65583365#0_0" arrivalPos="70.26" arrivalSpeed="7.85" duration="172.00" routeLength="1123.80" waitingTime="23.00" waitingCount="2" stopTime="0.00" timeLoss="44.01" rerouteNo="0" devices="tripinfo_97" vType="DEFAULT_VEHTYPE" speedFactor="1.08" vaporized=""/>
    <tripinfo id="221" depart="217.00" departLane="31518448#0_0" departPos="4.63" departSpeed="0.00" departDelay="0.88" arrival="249.00" arrivalLane="8382421#0_0" arrivalPos="62.03" arrivalSpeed="6.86" duration="32.00" routeLength="213.93" waitingTime="0.00" waitingCount="0" stopTime="0.00" timeLoss="3.88" rerouteNo="0" devices="tripinfo_221" vType="DEFAULT_VEHTYPE" speedFactor="0.95" vaporized=""/>
    <tripinfo id="7" depart="63.00" departLane="40493502_0" departPos="5.10" departSpeed="0.00" departDelay="0.96" arrival="252.00" arrivalLane="29023870#0_0" arrivalPos="4.19" arrivalSpeed="4.66" duration="189.00" routeLength="1194.56" waitingTime="2.00" waitingCount="1" stopTime="0.00" timeLoss="26.64" rerouteNo="0" devices="tripinfo_7" vType="DEFAULT_VEHTYPE" speedFactor="0.97" vaporized=""/>
    <tripinfo id="42" depart="74.00" departLane="14626335#5_0" departPos="5.10" departSpeed="0.00" departDelay="0.76" arrival="253.00" arrivalLane="-70724346#0_0" arrivalPos="5.92" arrivalSpeed="8.20" duration="179.00" routeLength="1486.62" waitingTime="0.00" waitingCount="0" stopTime="0.00" timeLoss="19.60" rerouteNo="0" devices="tripinfo_42" vType="DEFAULT_VEHTYPE" speedFactor="1.13" vaporized=""/>
    <tripinfo id="59" depart="70.00" departLane="34065519_0" departPos="5.10" departSpeed="0.00" departDelay="0.52" arrival="255.00" arrivalLane="-4426075#0_0" arrivalPos="235.48" arrivalSpeed="8.72" duration="185.00" routeLength="1463.31" waitingTime="0.00" waitingCount="0" stopTime="0.00" timeLoss="21.07" rerouteNo="0" devices="tripinfo_59" vType="DEFAULT_VEHTYPE" speedFactor="1.11" vaporized=""/>
    <tripinfo id="177" depart="134.00" departLane="8404828#1_0" departPos="5.10" departSpeed="0.00" departDelay="0.56" arrival="255.00" arrivalLane="-510702675#1_0" arrivalPos="1.62" arrivalSpeed="8.64" duration="121.00" routeLength="1076.20" waitingTime="5.00" waitingCount="1" stopTime="0.00" timeLoss="26.17" rerouteNo="0" devices="tripinfo_177" vType="DEFAULT_VEHTYPE" speedFactor="1.05" vaporized=""/>
    <tripinfo id="2" depart="22.00" departLane="4730647#2_0" departPos="5.10" departSpeed="0.00" departDelay="0.56" arrival="257.00" arrivalLane="4422177_0" arrivalPos="124.80" arrivalSpeed="13.27" duration="235.00" routeLength="1772.08" waitingTime="12.00" waitingCount="1" stopTime="0.00" timeLoss="39.33" rerouteNo="0" devices="tripinfo_2" vType="DEFAULT_VEHTYPE" speedFactor="0.96" vaporized=""/>
    <tripinfo id="213" depart="195.00" departLane="410103145#1_0" departPos="5.10" departSpeed="0.00" departDelay="0.64" arrival="262.00" arrivalLane="-1083809476#1_0" arrivalPos="7.06" arrivalSpeed="8.21" duration="67.00" routeLength="505.25" waitingTime="0.00" waitingCount="0" stopTime="0.00" timeLoss="12.33" rerouteNo="0" devices="tripinfo_213" vType="DEFAULT_VEHTYPE" speedFactor="1.07" vaporized=""/>
    <tripinfo id="166" depart="122.00" departLane="555922918#2_0" departPos="5.10" departSpeed="0.00" departDelay="1.48" arrival="264.00" arrivalLane="-31428170#0_0" arrivalPos="57.32" arrivalSpeed="8.27" duration="142.00" routeLength="987.66" waitingTime="2.00" waitingCount="1" stopTime="0.00" timeLoss="25.56" rerouteNo="0" devices="tripinfo_166" vType="DEFAULT_VEHTYPE" speedFactor="1.00" vaporized=""/>
    <tripinfo id="90" depart="121.00" departLane="4730633#1_0" departPos="5.10" departSpeed="0.00" departDelay="0.20" arrival="266.00" arrivalLane="4392761#1_1" arrivalPos="17.08" arrivalSpeed="14.27" duration="145.00" routeLength="1483.44" waitingTime="0.00" waitingCount="0" stopTime="0.00" timeLoss="16.43" rerouteNo="0" devices="tripinfo_90" vType="DEFAULT_VEHTYPE" speedFactor="1.19" vaporized=""/>
    <tripinfo id="176" depart="138.00" departLane="8382365#2_0" departPos="1.91" departSpeed="0.00" departDelay="0.28" arrival="267.00" arrivalLane="-31459223#1_0" arrivalPos="2.05" arrivalSpeed="7.67" duration="129.00" routeLength="928.16" waitingTime="0.00" waitingCount="0" stopTime="0.00" timeLoss="12.85" rerouteNo="0" devices="tripinfo_176" vType="DEFAULT_VEHTYPE" speedFactor="0.97" vaporized=""/>
    <tripinfo id="61" depart="101.00" departLane="5450857#0_0" departPos="5.10" departSpeed="0.00" departDelay="0.08" arrival="270.00" arrivalLane="27882418#1_0" arrivalPos="25.28" arrivalSpeed="7.22" duration="169.00" routeLength="1268.31" waitingTime="10.00" waitingCount="2" stopTime="0.00" timeLoss="31.39" rerouteNo="0" devices="tripinfo_61" vType="DEFAULT_VEHTYPE" speedFactor="0.91" vaporized=""/>
    <tripinfo id="34" depart="84.00" departLane="1162841664#1_0" departPos="0.20" departSpeed="0.00" departDelay="0.52" arrival="274.00" arrivalLane="-8385415#0_0" arrivalPos="0.20" arrivalSpeed="3.34" duration="190.00" routeLength="1451.19" waitingTime="0.00" waitingCount="0" stopTime="0.00" timeLoss="19.25" rerouteNo="0" devices="tripinfo_34" vType="DEFAULT_VEHTYPE" speedFactor="1.03" vaporized=""/>
    <tripinfo id="323" depart="244.00" departLane="736774459#1_0" departPos="0.20" departSpeed="0.00" departDelay="0.44" arrival="274.00" arrivalLane="31427257#6_0" arrivalPos="27.70" arrivalSpeed="12.43" duration="30.00" routeLength="325.40" waitingTime="0.00" waitingCount="0" stopTime="0.00" timeLoss="2.89" rerouteNo="0" devices="tripinfo_323" vType="DEFAULT_VEHTYPE" speedFactor="0.93" vaporized=""/>
    <tripinfo id="77" depart="84.00" departLane="-32200291_0" departPos="5.10" departSpeed="0.00" departDelay="0.56" arrival="275.00" arrivalLane="-781742860#0_0" arrivalPos="55.67" arrivalSpeed="7.37" duration="191.00" routeLength="1290.31" waitingTime="0.00" waitingCount="0" stopTime="0.00" timeLoss="17.37" rerouteNo="0" devices="tripinfo_77" vType="DEFAULT_VEHTYPE" speedFactor="0.90" vaporized=""/>
    <tripinfo id="238" depart="179.00" departLane="31431544#0_0" departPos="5.10" departSpeed="0.00" departDelay="0.64" arrival="275.00" arrivalLane="47027743#0_0" arrivalPos="3.60" arrivalSpeed="5.25" duration="96.00" routeLength="649.66" waitingTime="0.00" waitingCount="0" stopTime="0.00" timeLoss="14.11" rerouteNo="0" devices="tripinfo_238" vType="DEFAULT_VEHTYPE" speedFactor="0.97" vaporized=""/>
    <tripinfo id="49" depart="57.00" departLane="8404828#2_0" departPos="5.10" departSpeed="0.00" departDelay="0.72" arrival="276.00" arrivalLane="65583364_0" arrivalPos="49.29" arrivalSpeed="9.96" duration="219.00" routeLength="1962.53" waitingTime="0.00" waitingCount="0" stopTime="0.00" timeLoss="42.70" rerouteNo="0" devices="tripinfo_49" vType="DEFAULT_VEHTYPE" speedFactor="1.20" vaporized=""/>
    <tripinfo id="91" depart="100.00" departLane="9387033#2_0" departPos="3.95" departSpeed="0.00" departDelay="0.48" arrival="279.00" arrivalLane="-28575360_0" arrivalPos="54.97" arrivalSpeed="5.36" duration="179.00" routeLength="1101.89" waitingTime="9.00" waitingCount="1" stopTime="0.00" timeLoss="33.50" rerouteNo="0" devices="tripinfo_91" vType="DEFAULT_VEHTYPE" speedFactor="0.98" vaporized=""/>
    <tripinfo id="184" depart="152.00" departLane="-1041085657#1_0" departPos="5.10" departSpeed="0.00" departDelay="0.52" arrival="279.00" arrivalLane="8382283#0_0" arrivalPos="3.55" arrivalSpeed="7.39" duration="127.00" routeLength="944.97" waitingTime="0.00" waitingCount="0" stopTime="0.00" timeLoss="13.13" rerouteNo="0" devices="tripinfo_184" vType="DEFAULT_VEHTYPE" speedFactor="1.00" vaporized=""/>
    <tripinfo id="262" depart="228.00" departLane="40598675#0_0" departPos="5.10" departSpeed="0.00" departDelay="0.36" arrival="279.00" arrivalLane="496872852_0" arrivalPos="139.31" arrivalSpeed="7.72" duration="51.00" routeLength="375.04" waitingTime="0.00" waitingCount="0" stopTime="0.00" timeLoss="5.60" rerouteNo="0" devices="tripinfo_262" vType="DEFAULT_VEHTYPE" speedFactor="1.01" vaporized=""/>
    <tripinfo id="78" depart="75.00" departLane="1263793722#0_0" departPos="5.10" departSpeed="0.00" departDelay="0.84" arrival="280.00" arrivalLane="31448937#1_0" arrivalPos="72.36" arrivalSpeed="8.17" duration="205.00" routeLength="1548.50" waitingTime="0.00" waitingCount="0" stopTime="0.00" timeLoss="20.17" rerouteNo="0" devices="tripinfo_78" vType="DEFAULT_VEHTYPE" speedFactor="1.03" vaporized=""/>
    <tripinfo id="5" depart="17.00" departLane="-70724346#2_0" departPos="5.10" departSpeed="0.00" departDelay="0.40" arrival="285.00" arrivalLane="23179512#2_0" arrivalPos="7.79" arrivalSpeed="7.01" duration="268.00" routeLength="2021.93" waitingTime="0.00" waitingCount="0" stopTime="0.00" timeLoss="23.74" rerouteNo="0" devices="tripinfo_5" vType="DEFAULT_VEHTYPE" speedFactor="1.00" vaporized=""/>
    <tripinfo id="110" depart="108.00" departLane="8385415#2_0" departPos="5.10" departSpeed="0.00" departDelay="0.80" arrival="287.00" arrivalLane="31431101#3_0" arrivalPos="44.54" arrivalSpeed="8.08" duration="179.00" routeLength="1387.22" waitingTime="0.00" waitingCount="0" stopTime="0.00" timeLoss="20.71" rerouteNo="0" devices="tripinfo_110" vType="DEFAULT_VEHTYPE" speedFactor="1.03" vaporized=""/>
    <tripinfo id="185" depart="144.00" departLane="28208880#2_0" departPos="0.20" departSpeed="0.00" departDelay="0.80" arrival="287.00" arrivalLane="4730627#0_0" arrivalPos="0.10" arrivalSpeed="7.82" duration="143.00" routeLength="842.02" waitingTime="20.00" waitingCount="2" stopTime="0.00" timeLoss="53.48" rerouteNo="0" devices="tripinfo_185" vType="DEFAULT_VEHTYPE" speedFactor="1.19" vaporized=""/>
    <tripinfo id="60" depart="91.00" departLane="510493161_0" departPos="5.10" departSpeed="0.00" departDelay="1.80" arrival="288.00" arrivalLane="290174549#0_0" arrivalPos="117.86" arrivalSpeed="7.80" duration="197.00" routeLength="1486.12" waitingTime="25.00" waitingCount="2" stopTime="0.00" timeLoss="53.16" rerouteNo="0" devices="tripinfo_60" vType="DEFAULT_VEHTYPE" speedFactor="1.05" vaporized=""/>
    <tripinfo id="179" depart="150.00" departLane="-31411680#0_0" departPos="0.20" departSpeed="0.00" departDelay="0.12" arrival="288.00" arrivalLane="150276011#1_0" arrivalPos="152.21" arrivalSpeed="7.04" duration="138.00" routeLength="857.65" waitingTime="0.00" waitingCount="0" stopTime="0.00" timeLoss="15.72" rerouteNo="0" devices="tripinfo_179" vType="DEFAULT_VEHTYPE" speedFactor="0.91" vaporized=""/>
    <tripinfo id="255" depart="212.00" departLane="-654207122_0" departPos="0.20" departSpeed="0.00" departDelay="0.40" arrival="288.00" arrivalLane="121794824_0" arrivalPos="75.93" arrivalSpeed="2.56" duration="76.00" routeLength="171.63" waitingTime="0.00" waitingCount="0" stopTime="0.00" timeLoss="17.65" rerouteNo="0" devices="tripinfo_255" vType="DEFAULT_VEHTYPE" speedFactor="1.07" vaporized=""/>
    <tripinfo id="56" depart="52.00" departLane="231483313#0_0" departPos="0.20" departSpeed="0.00" departDelay="0.68" arrival="289.00" arrivalLane="-510702675#2_0" arrivalPos="81.77" arrivalSpeed="6.80" duration="237.00" routeLength="1470.86" waitingTime="19.00" waitingCount="2" stopTime="0.00" timeLoss="47.07" rerouteNo="0" devices="tripinfo_56" vType="DEFAULT_VEHTYPE" speedFactor="0.96" vaporized=""/>
    <tripinfo id="95" depart="80.00" departLane="150275988#2_0" departPos="3.16" departSpeed="0.00" departDelay="0.60" arrival="290.00" arrivalLane="1041085657#0_0" arrivalPos="8.03" arrivalSpeed="6.61" duration="210.00" routeLength="1322.72" waitingTime="0.00" waitingCount="0" stopTime="0.00" timeLoss="21.94" rerouteNo="0" devices="tripinfo_95" vType="DEFAULT_VEHTYPE" speedFactor="0.85" vaporized=""/>
    <tripinfo id="162" depart="164.00" departLane="-1267194155#1_0" departPos="5.10" departSpeed="0.00" departDelay="0.36" arrival="290.00" arrivalLane="4731082#2_0" arrivalPos="176.79" arrivalSpeed="8.06" duration="126.00" routeLength="1117.75" waitingTime="0.00" waitingCount="0" stopTime="0.00" timeLoss="15.61" rerouteNo="0" devices="tripinfo_162" vType="DEFAULT_VEHTYPE" speedFactor="1.09" vaporized=""/>
    <tripinfo id="31" depart="48.00" departLane="307372337#2_0" departPos="5.10" departSpeed="0.00" departDelay="0.68" arrival="293.00" arrivalLane="4441065_0" arrivalPos="304.01" arrivalSpeed="11.66" duration="245.00" routeLength="2367.34" waitingTime="9.00" waitingCount="1" stopTime="0.00" timeLoss="29.88" rerouteNo="0" devices="tripinfo_31" vType="DEFAULT_VEHTYPE" speedFactor="0.92" vaporized=""/>
    <tripinfo id="51" depart="54.00" departLane="4426075#0_0" departPos="5.10" departSpeed="0.00" departDelay="0.28" arrival="293.00" arrivalLane="290172304_0" arrivalPos="95.46" arrivalSpeed="10.10" duration="239.00" routeLength="2136.48" waitingTime="12.00" waitingCount="4" stopTime="0.00" timeLoss="50.80" rerouteNo="0" devices="tripinfo_51" vType="DEFAULT_VEHTYPE" speedFactor="1.22" vaporized=""/>