<?xml version="1.0" encoding="UTF-8"?>

<!-- generated on 2025-01-24 15:18:37 by Eclipse SUMO sumo Version 1.20.0
<configuration xmlns:xsi="http://www.w3.org/2001/XMLSchema-instance" xsi:noNamespaceSchemaLocation="http://sumo.dlr.de/xsd/sumoConfiguration.xsd">

    <input>
        <net-file value="/Users/dguastel/TULIPE_SCENARIO_OSM/tulipe_highways/tulipe_highways.rev.net.xml"/>
        <route-files value="output/0b68d8dd-3ff7-4363-9a3e-98d5fb5b4b89/routes.xml"/>
        <additional-files value="output/0b68d8dd-3ff7-4363-9a3e-98d5fb5b4b89/edgedata.add.xml,output/0b68d8dd-3ff7-4363-9a3e-98d5fb5b4b89/rerouter.add.xml"/>
    </input>

    <output>
        <summary-output value="output/0b68d8dd-3ff7-4363-9a3e-98d5fb5b4b89/summary.out.xml"/>
        <tripinfo-output value="output/0b68d8dd-3ff7-4363-9a3e-98d5fb5b4b89/tripinfo.withRoadworks.out.xml"/>
        <tripinfo-output.write-unfinished value="true"/>
    </output>

    <time>
        <begin value="0"/>
        <end value="7200"/>
    </time>

    <processing>
        <ignore-route-errors value="true"/>
        <random-depart-offset value="60.0"/>
    </processing>

    <random_number>
        <random value="true"/>
    </random_number>

</configuration>
-->

<tripinfos xmlns:xsi="http://www.w3.org/2001/XMLSchema-instance" xsi:noNamespaceSchemaLocation="http://sumo.dlr.de/xsd/tripinfo_file.xsd">
    <tripinfo id="48" depart="37.00" departLane="963479927#0_0" departPos="5.10" departSpeed="0.00" departDelay="0.44" arrival="45.00" arrivalLane="27807643#1_0" arrivalPos="4.57" arrivalSpeed="8.73" duration="8.00" routeLength="54.99" waitingTime="0.00" waitingCount="0" stopTime="0.00" timeLoss="3.58" rerouteNo="0" devices="tripinfo_48" vType="DEFAULT_VEHTYPE" speedFactor="1.09" vaporized=""/>
    <tripinfo id="1" depart="54.00" departLane="-95742119#1_0" departPos="3.64" departSpeed="0.00" departDelay="0.28" arrival="116.00" arrivalLane="-7682866#2_0" arrivalPos="24.28" arrivalSpeed="7.85" duration="62.00" routeLength="571.82" waitingTime="0.00" waitingCount="0" stopTime="0.00" timeLoss="7.37" rerouteNo="0" devices="tripinfo_1" vType="DEFAULT_VEHTYPE" speedFactor="1.05" vaporized=""/>
    <tripinfo id="8" depart="17.00" departLane="-7682863#0_0" departPos="0.20" departSpeed="0.00" departDelay="0.24" arrival="122.00" arrivalLane="31449010#0_0" arrivalPos="24.81" arrivalSpeed="6.32" duration="105.00" routeLength="721.05" waitingTime="0.00" waitingCount="0" stopTime="0.00" timeLoss="8.93" rerouteNo="0" devices="tripinfo_8" vType="DEFAULT_VEHTYPE" speedFactor="0.91" vaporized=""/>
    <tripinfo id="92" depart="92.00" departLane="14858643#1_0" departPos="1.61" departSpeed="0.00" departDelay="0.76" arrival="131.00" arrivalLane="124862963#1_0" arrivalPos="2.14" arrivalSpeed="14.82" duration="39.00" routeLength="477.79" waitingTime="0.00" waitingCount="0" stopTime="0.00" timeLoss="6.34" rerouteNo="0" devices="tripinfo_92" vType="DEFAULT_VEHTYPE" speedFactor="1.07" vaporized=""/>
    <tripinfo id="116" depart="132.00" departLane="31512978#2_0" departPos="0.20" departSpeed="0.00" departDelay="3.48" arrival="135.00" arrivalLane="4392761#5_0" arrivalPos="0.20" arrivalSpeed="2.58" duration="3.00" routeLength="4.03" waitingTime="1.00" waitingCount="1" stopTime="0.00" timeLoss="2.17" rerouteNo="0" devices="tripinfo_116" vType="DEFAULT_VEHTYPE" speedFactor="0.88" vaporized=""/>
    <tripinfo id="0" depart="18.00" departLane="40151780#0_0" departPos="5.10" departSpeed="0.00" departDelay="0.00" arrival="136.00" arrivalLane="-1307684786#1_0" arrivalPos="50.24" arrivalSpeed="7.87" duration="118.00" routeLength="895.40" waitingTime="0.00" waitingCount="0" stopTime="0.00" timeLoss="13.14" rerouteNo="0" devices="tripinfo_0" vType="DEFAULT_VEHTYPE" speedFactor="1.05" vaporized=""/>
    <tripinfo id="21" depart="67.00" departLane="-803266531#2_0" departPos="4.08" departSpeed="0.00" departDelay="0.88" arrival="141.00" arrivalLane="1080960154#1_0" arrivalPos="171.64" arrivalSpeed="5.65" duration="74.00" routeLength="402.80" waitingTime="0.00" waitingCount="0" stopTime="0.00" timeLoss="10.18" rerouteNo="0" devices="tripinfo_21" vType="DEFAULT_VEHTYPE" speedFactor="1.11" vaporized=""/>
    <tripinfo id="66" depart="68.00" departLane="7682864#1_0" departPos="5.10" departSpeed="0.00" departDelay="0.48" arrival="149.00" arrivalLane="8382402#0_0" arrivalPos="4.38" arrivalSpeed="6.78" duration="81.00" routeLength="533.74" waitingTime="0.00" waitingCount="0" stopTime="0.00" timeLoss="9.01" rerouteNo="0" devices="tripinfo_66" vType="DEFAULT_VEHTYPE" speedFactor="0.90" vaporized=""/>
    <tripinfo id="143" depart="127.00" departLane="643081314#1_0" departPos="0.20" departSpeed="0.00" departDelay="0.04" arrival="154.00" arrivalLane="-244422543#1_0" arrivalPos="124.72" arrivalSpeed="6.00" duration="27.00" routeLength="148.67" waitingTime="0.00" waitingCount="0" stopTime="0.00" timeLoss="3.99" rerouteNo="0" devices="tripinfo_143" vType="DEFAULT_VEHTYPE" speedFactor="0.82" vaporized=""/>
    <tripinfo id="70" depart="98.00" departLane="198077805#0_0" departPos="5.10" departSpeed="0.00" departDelay="0.60" arrival="158.00" arrivalLane="302657565#1_0" arrivalPos="213.58" arrivalSpeed="8.53" duration="60.00" routeLength="549.17" waitingTime="0.00" waitingCount="0" stopTime="0.00" timeLoss="8.14" rerouteNo="0" devices="tripinfo_70" vType="DEFAULT_VEHTYPE" speedFactor="1.12" vaporized=""/>
    <tripinfo id="16" depart="35.00" departLane="27882429#0_0" departPos="5.10" departSpeed="0.00" departDelay="0.48" arrival="160.00" arrivalLane="8404828#2_0" arrivalPos="5.83" arrivalSpeed="8.49" duration="125.00" routeLength="991.73" waitingTime="0.00" waitingCount="0" stopTime="0.00" timeLoss="13.70" rerouteNo="0" devices="tripinfo_16" vType="DEFAULT_VEHTYPE" speedFactor="1.08" vaporized=""/>
    <tripinfo id="13" depart="15.00" departLane="-265113917#1_0" departPos="5.10" departSpeed="0.00" departDelay="0.64" arrival="163.00" arrivalLane="-27882418#1_0" arrivalPos="25.28" arrivalSpeed="8.64" duration="148.00" routeLength="1279.66" waitingTime="0.00" waitingCount="0" stopTime="0.00" timeLoss="16.91" rerouteNo="0" devices="tripinfo_13" vType="DEFAULT_VEHTYPE" speedFactor="1.16" vaporized=""/>
    <tripinfo id="175" depart="132.00" departLane="897325985#0_0" departPos="5.10" departSpeed="0.00" departDelay="0.00" arrival="168.00" arrivalLane="29000804#0_0" arrivalPos="17.81" arrivalSpeed="6.89" duration="36.00" routeLength="334.12" waitingTime="0.00" waitingCount="0" stopTime="0.00" timeLoss="5.15" rerouteNo="0" devices="tripinfo_175" vType="DEFAULT_VEHTYPE" speedFactor="0.96" vaporized=""/>
    <tripinfo id="57" depart="58.00" departLane="8152060#1_0" departPos="5.10" departSpeed="0.00" departDelay="0.96" arrival="178.00" arrivalLane="720012594#2_0" arrivalPos="69.51" arrivalSpeed="9.46" duration="120.00" routeLength="927.29" waitingTime="15.00" waitingCount="1" stopTime="0.00" timeLoss="28.48" rerouteNo="0" devices="tripinfo_57" vType="DEFAULT_VEHTYPE" speedFactor="1.26" vaporized=""/>
    <tripinfo id="38" depart="46.00" departLane="8250533#1_0" departPos="5.10" departSpeed="0.00" departDelay="0.64" arrival="181.00" arrivalLane="17670100#2_0" arrivalPos="52.49" arrivalSpeed="8.02" duration="135.00" routeLength="909.33" waitingTime="5.00" waitingCount="1" stopTime="0.00" timeLoss="21.20" rerouteNo="0" devices="tripinfo_38" vType="DEFAULT_VEHTYPE" speedFactor="0.98" vaporized=""/>
    <tripinfo id="45" depart="56.00" departLane="-31411680#2_0" departPos="0.20" departSpeed="0.00" departDelay="0.60" arrival="183.00" arrivalLane="399914534#1_0" arrivalPos="71.77" arrivalSpeed="8.52" duration="127.00" routeLength="932.24" waitingTime="3.00" waitingCount="1" stopTime="0.00" timeLoss="18.89" rerouteNo="0" devices="tripinfo_45" vType="DEFAULT_VEHTYPE" speedFactor="1.08" vaporized=""/>
    <tripinfo id="94" depart="96.00" departLane="-524150342_0" departPos="0.20" departSpeed="0.00" departDelay="0.32" arrival="183.00" arrivalLane="16233735#1_0" arrivalPos="6.07" arrivalSpeed="6.47" duration="87.00" routeLength="430.46" waitingTime="23.00" waitingCount="1" stopTime="0.00" timeLoss="30.24" rerouteNo="0" devices="tripinfo_94" vType="DEFAULT_VEHTYPE" speedFactor="0.93" vaporized=""/>
    <tripinfo id="11" depart="31.00" departLane="1263954923_0" departPos="0.20" departSpeed="0.00" departDelay="0.08" arrival="189.00" arrivalLane="-4426076#0_0" arrivalPos="30.91" arrivalSpeed="8.36" duration="158.00" routeLength="1192.34" waitingTime="0.00" waitingCount="0" stopTime="0.00" timeLoss="20.05" rerouteNo="0" devices="tripinfo_11" vType="DEFAULT_VEHTYPE" speedFactor="1.02" vaporized=""/>
    <tripinfo id="79" depart="90.00" departLane="-8140188#1_0" departPos="5.10" departSpeed="0.00" departDelay="0.12" arrival="191.00" arrivalLane="-70724346#2_0" arrivalPos="27.95" arrivalSpeed="8.51" duration="101.00" routeLength="781.07" waitingTime="3.00" waitingCount="1" stopTime="0.00" timeLoss="18.54" rerouteNo="0" devices="tripinfo_79" vType="DEFAULT_VEHTYPE" speedFactor="1.15" vaporized=""/>
    <tripinfo id="47" depart="56.00" departLane="-17670100#4_0" departPos="1.73" departSpeed="0.00" departDelay="0.16" arrival="197.00" arrivalLane="13853659#0_0" arrivalPos="31.49" arrivalSpeed="5.28" duration="141.00" routeLength="943.45" waitingTime="0.00" waitingCount="0" stopTime="0.00" timeLoss="14.56" rerouteNo="1" devices="tripinfo_47" vType="DEFAULT_VEHTYPE" speedFactor="0.99" vaporized=""/>
    <tripinfo id="86" depart="94.00" departLane="183370113#4_0" departPos="5.10" departSpeed="0.00" departDelay="0.08" arrival="200.00" arrivalLane="5451844#1_0" arrivalPos="36.13" arrivalSpeed="8.57" duration="106.00" routeLength="815.98" waitingTime="14.00" waitingCount="2" stopTime="0.00" timeLoss="28.77" rerouteNo="0" devices="tripinfo_86" vType="DEFAULT_VEHTYPE" speedFactor="1.03" vaporized=""/>
    <tripinfo id="157" depart="134.00" departLane="5450858#1_0" departPos="5.10" departSpeed="0.00" departDelay="0.96" arrival="203.00" arrivalLane="781742860#2_0" arrivalPos="35.12" arrivalSpeed="9.52" duration="69.00" routeLength="605.49" waitingTime="0.00" waitingCount="0" stopTime="0.00" timeLoss="8.00" rerouteNo="0" devices="tripinfo_157" vType="DEFAULT_VEHTYPE" speedFactor="1.20" vaporized=""/>
    <tripinfo id="130" depart="109.00" departLane="7682875_0" departPos="5.10" departSpeed="0.00" departDelay="0.40" arrival="205.00" arrivalLane="7682864#2_0" arrivalPos="79.59" arrivalSpeed="6.65" duration="96.00" routeLength="566.40" waitingTime="0.00" waitingCount="0" stopTime="0.00" timeLoss="10.88" rerouteNo="0" devices="tripinfo_130" vType="DEFAULT_VEHTYPE" speedFactor="0.81" vaporized=""/>
    <tripinfo id="39" depart="65.00" departLane="-8384930#0_0" departPos="0.20" departSpeed="0.00" departDelay="0.92" arrival="206.00" arrivalLane="-832629331#1_0" arrivalPos="8.84" arrivalSpeed="7.24" duration="141.00" routeLength="968.07" waitingTime="0.00" waitingCount="0" stopTime="0.00" timeLoss="16.44" rerouteNo="0" devices="tripinfo_39" vType="DEFAULT_VEHTYPE" speedFactor="0.94" vaporized=""/>
    <tripinfo id="29" depart="66.00" departLane="-4730648#4_0" departPos="3.80" departSpeed="0.00" departDelay="0.12" arrival="209.00" arrivalLane="13853655#1_0" arrivalPos="19.09" arrivalSpeed="8.92" duration="143.00" routeLength="1006.42" waitingTime="0.00" waitingCount="0" stopTime="0.00" timeLoss="16.83" rerouteNo="1" devices="tripinfo_29" vType="DEFAULT_VEHTYPE" speedFactor="1.16" vaporized=""/>
    <tripinfo id="7" depart="21.00" departLane="40493502_0" departPos="5.10" departSpeed="0.00" departDelay="0.96" arrival="213.00" arrivalLane="29023870#0_0" arrivalPos="4.19" arrivalSpeed="3.78" duration="192.00" routeLength="1194.56" waitingTime="0.00" waitingCount="0" stopTime="0.00" timeLoss="23.59" rerouteNo="0" devices="tripinfo_7" vType="DEFAULT_VEHTYPE" speedFactor="0.93" vaporized=""/>
    <tripinfo id="26" depart="42.00" departLane="-8385415#2_0" departPos="5.10" departSpeed="0.00" departDelay="0.28" arrival="217.00" arrivalLane="8382347#4_0" arrivalPos="0.20" arrivalSpeed="7.31" duration="175.00" routeLength="1153.34" waitingTime="0.00" waitingCount="0" stopTime="0.00" timeLoss="21.92" rerouteNo="0" devices="tripinfo_26" vType="DEFAULT_VEHTYPE" speedFactor="0.92" vaporized=""/>
    <tripinfo id="201" depart="162.00" departLane="198077804#0_0" departPos="5.10" departSpeed="0.00" departDelay="0.28" arrival="218.00" arrivalLane="8140198#1_0" arrivalPos="21.87" arrivalSpeed="9.01" duration="56.00" routeLength="523.57" waitingTime="0.00" waitingCount="0" stopTime="0.00" timeLoss="7.73" rerouteNo="0" devices="tripinfo_201" vType="DEFAULT_VEHTYPE" speedFactor="1.21" vaporized=""/>
    <tripinfo id="96" depart="121.00" departLane="-8382302#1_0" departPos="5.10" departSpeed="0.00" departDelay="0.88" arrival="224.00" arrivalLane="8382281#0_0" arrivalPos="195.61" arrivalSpeed="8.20" duration="103.00" routeLength="763.00" waitingTime="0.00" waitingCount="0" stopTime="0.00" timeLoss="10.47" rerouteNo="0" devices="tripinfo_96" vType="DEFAULT_VEHTYPE" speedFactor="1.00" vaporized=""/>
    <tripinfo id="41" depart="90.00" departLane="31431544#1_0" departPos="5.10" departSpeed="0.00" departDelay="0.48" arrival="229.00" arrivalLane="8140193#1_0" arrivalPos="88.39" arrivalSpeed="8.49" duration="139.00" routeLength="1090.42" waitingTime="0.00" waitingCount="0" stopTime="0.00" timeLoss="16.23" rerouteNo="0" devices="tripinfo_41" vType="DEFAULT_VEHTYPE" speedFactor="1.08" vaporized=""/>
    <tripinfo id="61" depart="70.00" departLane="5450857#0_0" departPos="5.10" departSpeed="0.00" departDelay="0.08" arrival="236.00" arrivalLane="27882418#1_0" arrivalPos="25.28" arrivalSpeed="6.94" duration="166.00" routeLength="1268.31" waitingTime="16.00" waitingCount="2" stopTime="0.00" timeLoss="34.46" rerouteNo="0" devices="tripinfo_61" vType="DEFAULT_VEHTYPE" speedFactor="0.96" vaporized=""/>
    <tripinfo id="118" depart="94.00" departLane="8140188#11_0" departPos="5.10" departSpeed="0.00" departDelay="0.04" arrival="241.00" arrivalLane="-832629331#1_0" arrivalPos="8.84" arrivalSpeed="7.69" duration="147.00" routeLength="1084.13" waitingTime="0.00" waitingCount="0" stopTime="0.00" timeLoss="15.62" rerouteNo="0" devices="tripinfo_118" vType="DEFAULT_VEHTYPE" speedFactor="1.01" vaporized=""/>
    <tripinfo id="102" depart="78.00" departLane="220267107#1_0" departPos="5.10" departSpeed="0.00" departDelay="0.56" arrival="242.00" arrivalLane="-654207127#0_0" arrivalPos="38.78" arrivalSpeed="3.31" duration="164.00" routeLength="750.64" waitingTime="0.00" waitingCount="0" stopTime="0.00" timeLoss="28.72" rerouteNo="0" devices="tripinfo_102" vType="DEFAULT_VEHTYPE" speedFactor="1.23" vaporized=""/>
    <tripinfo id="262" depart="191.00" departLane="40598675#0_0" departPos="5.10" departSpeed="0.00" departDelay="0.36" arrival="244.00" arrivalLane="496872852_0" arrivalPos="139.31" arrivalSpeed="7.25" duration="53.00" routeLength="375.04" waitingTime="0.00" waitingCount="0" stopTime="0.00" timeLoss="5.56" rerouteNo="0" devices="tripinfo_262" vType="DEFAULT_VEHTYPE" speedFactor="0.97" vaporized=""/>
    <tripinfo id="202" depart="153.00" departLane="610739513#1_0" departPos="3.96" departSpeed="0.00" departDelay="0.56" arrival="248.00" arrivalLane="-47895849#3_0" arrivalPos="12.82" arrivalSpeed="5.64" duration="95.00" routeLength="684.16" waitingTime="0.00" waitingCount="0" stopTime="0.00" timeLoss="9.90" rerouteNo="0" devices="tripinfo_202" vType="DEFAULT_VEHTYPE" speedFactor="1.09" vaporized=""/>
    <tripinfo id="120" depart="124.00" departLane="150275986#3_0" departPos="5.10" departSpeed="0.00" departDelay="0.60" arrival="250.00" arrivalLane="31431544#3_0" arrivalPos="43.92" arrivalSpeed="5.03" duration="126.00" routeLength="636.65" waitingTime="0.00" waitingCount="0" stopTime="0.00" timeLoss="17.43" rerouteNo="0" devices="tripinfo_120" vType="DEFAULT_VEHTYPE" speedFactor="0.72" vaporized=""/>
    <tripinfo id="40" depart="78.00" departLane="307954762#1_0" departPos="5.10" departSpeed="0.00" departDelay="0.20" arrival="253.00" arrivalLane="-8382445#0_0" arrivalPos="2.72" arrivalSpeed="7.34" duration="175.00" routeLength="1185.56" waitingTime="0.00" waitingCount="0" stopTime="0.00" timeLoss="19.73" rerouteNo="0" devices="tripinfo_40" vType="DEFAULT_VEHTYPE" speedFactor="0.93" vaporized=""/>
    <tripinfo id="97" depart="71.00" departLane="16233735#0_0" departPos="5.10" departSpeed="0.00" departDelay="0.16" arrival="253.00" arrivalLane="65583365#0_0" arrivalPos="70.26" arrivalSpeed="7.04" duration="182.00" routeLength="1123.80" waitingTime="12.00" waitingCount="2" stopTime="0.00" timeLoss="34.99" rerouteNo="0" devices="tripinfo_97" vType="DEFAULT_VEHTYPE" speedFactor="0.93" vaporized=""/>
    <tripinfo id="78" depart="59.00" departLane="1263793722#0_0" departPos="5.10" departSpeed="0.00" departDelay="0.84" arrival="254.00" arrivalLane="31448937#1_0" arrivalPos="72.36" arrivalSpeed="8.25" duration="195.00" routeLength="1548.50" waitingTime="0.00" waitingCount="0" stopTime="0.00" timeLoss="19.34" rerouteNo="0" devices="tripinfo_78" vType="DEFAULT_VEHTYPE" speedFactor="1.08" vaporized=""/>
    <tripinfo id="213" depart="194.00" departLane="410103145#1_0" departPos="5.10" departSpeed="0.00" departDelay="0.64" arrival="256.00" arrivalLane="-1083809476#1_0" arrivalPos="7.06" arrivalSpeed="8.74" duration="62.00" routeLength="505.25" waitingTime="0.00" waitingCount="0" stopTime="0.00" timeLoss="12.59" rerouteNo="0" devices="tripinfo_213" vType="DEFAULT_VEHTYPE" speedFactor="1.19" vaporized=""/>
    <tripinfo id="76" depart="107.00" departLane="159636083#0_0" departPos="5.10" departSpeed="0.00" departDelay="0.28" arrival="258.00" arrivalLane="239757874#0_0" arrivalPos="111.78" arrivalSpeed="8.03" duration="151.00" routeLength="1339.70" waitingTime="2.00" waitingCount="1" stopTime="0.00" timeLoss="19.90" rerouteNo="0" devices="tripinfo_76" vType="DEFAULT_VEHTYPE" speedFactor="1.03" vaporized=""/>
    <tripinfo id="221" depart="219.00" departLane="31518448#0_0" departPos="4.63" departSpeed="0.00" departDelay="0.88" arrival="260.00" arrivalLane="8382421#0_0" arrivalPos="62.03" arrivalSpeed="4.99" duration="41.00" routeLength="213.93" waitingTime="7.00" waitingCount="1" stopTime="0.00" timeLoss="15.93" rerouteNo="0" devices="tripinfo_221" vType="DEFAULT_VEHTYPE" speedFactor="1.06" vaporized=""/>
    <tripinfo id="63" depart="97.00" departLane="-121794825#3_0" departPos="4.66" departSpeed="0.00" departDelay="0.64" arrival="261.00" arrivalLane="8382302#0_0" arrivalPos="79.20" arrivalSpeed="8.18" duration="164.00" routeLength="710.34" waitingTime="2.00" waitingCount="1" stopTime="0.00" timeLoss="34.52" rerouteNo="0" devices="tripinfo_63" vType="DEFAULT_VEHTYPE" speedFactor="1.05" vaporized=""/>
    <tripinfo id="34" depart="48.00" departLane="1162841664#1_0" departPos="0.20" departSpeed="0.00" departDelay="0.52" arrival="267.00" arrivalLane="-8385415#0_0" arrivalPos="0.20" arrivalSpeed="3.14" duration="219.00" routeLength="1451.19" waitingTime="0.00" waitingCount="0" stopTime="0.00" timeLoss="24.08" rerouteNo="0" devices="tripinfo_34" vType="DEFAULT_VEHTYPE" speedFactor="0.90" vaporized=""/>
    <tripinfo id="4" depart="11.00" departLane="150275988#2_0" departPos="3.16" departSpeed="0.00" departDelay="0.12" arrival="271.00" arrivalLane="-13764245#0_0" arrivalPos="217.36" arrivalSpeed="9.10" duration="260.00" routeLength="2292.58" waitingTime="16.00" waitingCount="2" stopTime="0.00" timeLoss="47.53" rerouteNo="0" devices="tripinfo_4" vType="DEFAULT_VEHTYPE" speedFactor="1.13" vaporized=""/>
    <tripinfo id="18" depart="72.00" departLane="628757206#1_0" departPos="5.10" departSpeed="0.00" departDelay="0.04" arrival="272.00" arrivalLane="377719664_0" arrivalPos="85.59" arrivalSpeed="7.79" duration="200.00" routeLength="1467.52" waitingTime="15.00" waitingCount="1" stopTime="0.00" timeLoss="35.83" rerouteNo="1" devices="tripinfo_18" vType="DEFAULT_VEHTYPE" speedFactor="1.08" vaporized=""/>
    <tripinfo id="36" depart="63.00" departLane="759157551#1_0" departPos="5.10" departSpeed="0.00" departDelay="0.08" arrival="272.00" arrivalLane="119180322_0" arrivalPos="109.44" arrivalSpeed="7.27" duration="209.00" routeLength="1616.08" waitingTime="0.00" waitingCount="0" stopTime="0.00" timeLoss="29.94" rerouteNo="0" devices="tripinfo_36" vType="DEFAULT_VEHTYPE" speedFactor="0.92" vaporized=""/>
    <tripinfo id="90" depart="72.00" departLane="4730633#1_0" departPos="5.10" departSpeed="0.00" departDelay="0.20" arrival="272.00" arrivalLane="4392761#1_1" arrivalPos="17.08" arrivalSpeed="11.45" duration="200.00" routeLength="1483.44" waitingTime="14.00" waitingCount="1" stopTime="0.00" timeLoss="35.07" rerouteNo="0" devices="tripinfo_90" vType="DEFAULT_VEHTYPE" speedFactor="0.93" vaporized=""/>
    <tripinfo id="43" depart="69.00" departLane="963479927#0_0" departPos="5.10" departSpeed="0.00" departDelay="0.04" arrival="275.00" arrivalLane="231945290#1_0" arrivalPos="40.52" arrivalSpeed="7.50" duration="206.00" routeLength="2262.00" waitingTime="12.00" waitingCount="2" stopTime="0.00" timeLoss="34.89" rerouteNo="0" devices="tripinfo_43" vType="DEFAULT_VEHTYPE" speedFactor="1.05" vaporized=""/>
    <tripinfo id="59" depart="64.00" departLane="34065519_0" departPos="5.10" departSpeed="0.00" departDelay="0.52" arrival="276.00" arrivalLane="-4426075#0_0" arrivalPos="235.48" arrivalSpeed="7.32" duration="212.00" routeLength="1463.31" waitingTime="4.00" waitingCount="1" stopTime="0.00" timeLoss="30.67" rerouteNo="0" devices="tripinfo_59" vType="DEFAULT_VEHTYPE" speedFactor="1.00" vaporized=""/>
    <tripinfo id="100" depart="98.00" departLane="8385415#3_0" departPos="5.10" departSpeed="0.00" departDelay="0.00" arrival="276.00" arrivalLane="8382283#2_0" arrivalPos="23.61" arrivalSpeed="9.04" duration="178.00" routeLength="1471.77" waitingTime="0.00" waitingCount="0" stopTime="0.00" timeLoss="28.40" rerouteNo="0" devices="tripinfo_100" vType="DEFAULT_VEHTYPE" speedFactor="1.16" vaporized=""/>
    <tripinfo id="106" depart="80.00" departLane="175976586#0_0" departPos="5.10" departSpeed="0.00" departDelay="0.68" arrival="281.00" arrivalLane="150275988#0_0" arrivalPos="48.92" arrivalSpeed="8.57" duration="201.00" routeLength="1513.85" waitingTime="3.00" waitingCount="1" stopTime="0.00" timeLoss="31.11" rerouteNo="0" devices="tripinfo_106" vType="DEFAULT_VEHTYPE" speedFactor="1.08" vaporized=""/>
    <tripinfo id="95" depart="91.00" departLane="150275988#2_0" departPos="3.16" departSpeed="0.00" departDelay="0.60" arrival="282.00" arrivalLane="1041085657#0_0" arrivalPos="8.03" arrivalSpeed="6.89" duration="191.00" routeLength="1322.72" waitingTime="4.00" waitingCount="1" stopTime="0.00" timeLoss="22.47" rerouteNo="0" devices="tripinfo_95" vType="DEFAULT_VEHTYPE" speedFactor="0.95" vaporized=""/>
    <tripinfo id="176" depart="158.00" departLane="8382365#2_0" departPos="1.91" departSpeed="0.00" departDelay="0.28" arrival="283.00" arrivalLane="-31459223#1_0" arrivalPos="2.05" arrivalSpeed="8.14" duration="125.00" routeLength="928.16" waitingTime="0.00" waitingCount="0" stopTime="0.00" timeLoss="13.74" rerouteNo="0" devices="tripinfo_176" vType="DEFAULT_VEHTYPE" speedFactor="1.01" vaporized=""/>
    <tripinfo id="2" depart="29.00" departLane="4730647#2_0" departPos="5.10" departSpeed="0.00" departDelay="0.56" arrival="284.00" arrivalLane="4422177_0" arrivalPos="124.80" arrivalSpeed="14.15" duration="255.00" routeLength="1772.08" waitingTime="48.00" waitingCount="1" stopTime="0.00" timeLoss="78.65" rerouteNo="0" devices="tripinfo_2" vType="DEFAULT_VEHTYPE" speedFactor="1.06" vaporized=""/>
    <tripinfo id="42" depart="85.00" departLane="14626335#5_0" departPos="5.10" departSpeed="0.00" departDelay="0.76" arrival="287.00" arrivalLane="-70724346#0_0" arrivalPos="5.92" arrivalSpeed="7.96" duration="202.00" routeLength="1486.62" waitingTime="0.00" waitingCount="0" stopTime="0.00" timeLoss="21.83" rerouteNo="0" devices="tripinfo_42" vType="DEFAULT_VEHTYPE" speedFactor="1.00" vaporized=""/>
    <tripinfo id="184" depart="149.00" departLane="-1041085657#1_0" departPos="5.10" departSpeed="0.00" departDelay="0.52" arrival="288.00" arrivalLane="8382283#0_0" arrivalPos="3.55" arrivalSpeed="7.12" duration="139.00" routeLength="944.97" waitingTime="2.00" waitingCount="1" stopTime="0.00" timeLoss="19.94" rerouteNo="0" devices="tripinfo_184" vType="DEFAULT_VEHTYPE" speedFactor="0.96" vaporized=""/>
    <tripinfo id="177" depart="157.00" departLane="8404828#1_0" departPos="5.10" departSpeed="0.00" departDelay="0.56" arrival="289.00" arrivalLane="-510702675#1_0" arrivalPos="1.62" arrivalSpeed="9.27" duration="132.00" routeLength="1076.20" waitingTime="22.00" waitingCount="3" stopTime="0.00" timeLoss="42.47" rerouteNo="0" devices="tripinfo_177" vType="DEFAULT_VEHTYPE" speedFactor="1.12" vaporized=""/>
    <tripinfo id="17" depart="33.00" departLane="13853663_0" departPos="5.10" departSpeed="0.00" departDelay="0.76" arrival="292.00" arrivalLane="30324793_0" arrivalPos="33.32" arrivalSpeed="7.18" duration="259.00" routeLength="1721.90" waitingTime="14.00" waitingCount="1" stopTime="0.00" timeLoss="40.18" rerouteNo="0" devices="tripinfo_17" vType="DEFAULT_VEHTYPE" speedFactor="0.98" vaporized=""/>
    <tripinfo id="166" depart="158.00" departLane="555922918#2_0" departPos="5.10" departSpeed="0.00" departDelay="0.48" arrival="294.00" arrivalLane="-31428170#0_0" arrivalPos="57.32" arrivalSpeed="7.46" duration="136.00" routeLength="987.66" waitingTime="0.00" waitingCount="0" stopTime="0.00" timeLoss="16.75" rerouteNo="0" devices="tripinfo_166" vType="DEFAULT_VEHTYPE" speedFactor="0.98" vaporized=""/>
    <tripinfo id="198" depart="150.00" departLane="150276002_0" departPos="5.10" departSpeed="0.00" departDelay="0.44" arrival="294.00" arrivalLane="31431101#5_0" arrivalPos="17.82" arrivalSpeed="8.41" duration="144.00" routeLength="1183.38" waitingTime="0.00" waitingCount="0" stopTime="0.00" timeLoss="17.98" rerouteNo="0" devices="tripinfo_198" vType="DEFAULT_VEHTYPE" speedFactor="1.14" vaporized=""/>
    <tripinfo id="132" depart="123.00" departLane="628781004#0_0" departPos="3.55" departSpeed="0.00" departDelay="0.96" arrival="295.00" arrivalLane="4726694#0_0" arrivalPos="116.71" arrivalSpeed="5.10" duration="172.00" routeLength="1712.63" waitingTime="0.00" waitingCount="0" stopTime="0.00" timeLoss="15.12" rerouteNo="0" devices="tripinfo_132" vType="DEFAULT_VEHTYPE" speedFactor="1.08" vaporized=""/>
    <tripinfo id="138" depart="102.00" departLane="-30324793_0" departPos="5.10" departSpeed="0.00" departDelay="0.64" arrival="295.00" arrivalLane="307372337#0_0" arrivalPos="20.84" arrivalSpeed="8.81" duration="193.00" routeLength="1461.55" waitingTime="3.00" waitingCount="2" stopTime="0.00" timeLoss="35.83" rerouteNo="1" devices="tripinfo_138" vType="DEFAULT_VEHTYPE" speedFactor="1.13" vaporized=""/>
    <tripinfo id="228" depart="172.00" departLane="510702675#0_0" departPos="5.10" departSpeed="0.00" departDelay="0.84" arrival="295.00" arrivalLane="240549300#0_0" arrivalPos="6.54" arrivalSpeed="8.80" duration="123.00" routeLength="1137.91" waitingTime="9.00" waitingCount="2" stopTime="0.00" timeLoss="27.65" rerouteNo="0" devices="tripinfo_228" vType="DEFAULT_VEHTYPE" speedFactor="1.08" vaporized=""/>
    <tripinfo id="77" depart="64.00" departLane="-32200291_0" departPos="5.10" departSpeed="0.00" departDelay="0.56" arrival="300.00" arrivalLane="-781742860#0_0" arrivalPos="55.67" arrivalSpeed="7.89" duration="236.00" routeLength="1640.97" waitingTime="0.00" waitingCount="0" stopTime="0.00" timeLoss="33.18" rerouteNo="1" devices="tripinfo_77" vType="DEFAULT_VEHTYPE" speedFactor="0.98" vaporized=""/>
    <tripinfo id="72" depart="63.00" departLane="150275988#5_0" departPos="5.10" departSpeed="0.00" departDelay="0.16" arrival="301.00" arrivalLane="-654207127#0_0" arrivalPos="38.78" arrivalSpeed="2.06" duration="238.00" routeLength="922.40" waitingTime="0.00" waitingCount="0" stopTime="0.00" timeLoss="46.14" rerouteNo="0" devices="tripinfo_72" vType="DEFAULT_VEHTYPE" speedFactor="0.97" vaporized=""/>
    <tripinfo id="30" depart="35.00" departLane="95742114_0" departPos="5.10" departSpeed="0.00" departDelay="0.40" arrival="302.00" arrivalLane="403882374_1" arrivalPos="0.20" arrivalSpeed="5.96" duration="267.00" routeLength="3045.05" waitingTime="0.00" waitingCount="0" stopTime="0.00" timeLoss="20.55" rerouteNo="1" devices="tripinfo_30" vType="DEFAULT_VEHTYPE" speedFactor="1.03" vaporized=""/>
    <tripinfo id="302" depart="221.00" departLane="450186404_0" departPos="5.10" departSpeed="0.00" departDelay="0.56" arrival="302.00" arrivalLane="40493418_0" arrivalPos="86.95" arrivalSpeed="6.93" duration="81.00" routeLength="522.40" waitingTime="0.00" waitingCount="0" stopTime="0.00" timeLoss="9.00" rerouteNo="0" devices="tripinfo_302" vType="DEFAULT_VEHTYPE" speedFactor="0.89" vaporized=""/>
    <tripinfo id="22" depart="17.00" departLane="-231475826#1_0" departPos="1.84" departSpeed="0.00" departDelay="0.16" arrival="304.00" arrivalLane="-8140188#12_0" arrivalPos="1.82" arrivalSpeed="7.92" duration="287.00" routeLength="1916.90" waitingTime="23.00" waitingCount="2" stopTime="0.00" timeLoss="58.63" rerouteNo="0" devices="tripinfo_22" vType="DEFAULT_VEHTYPE" speedFactor="1.02" vaporized=""/>
    <tripinfo id="315" depart="232.00" departLane="875772621#1_0" departPos="5.10" departSpeed="0.00" departDelay="0.20" arrival="304.00" arrivalLane="244422544#1_0" arrivalPos="0.20" arrivalSpeed="8.92" duration="72.00" routeLength="582.57" waitingTime="0.00" waitingCount="0" stopTime="0.00" timeLoss="8.99" rerouteNo="0" devices="tripinfo_315" vType="DEFAULT_VEHTYPE" speedFactor="1.12" vaporized=""/>